/*--------------------------------*- C++ -*----------------------------------*\
| =========                 |                                                 |
| \\      /  F ield         | OpenFOAM: The Open Source CFD Toolbox           |
|  \\    /   O peration     | Version:  2412                                  |
|   \\  /    A nd           | Website:  www.openfoam.com                      |
|    \\/     M anipulation  |                                                 |
\*---------------------------------------------------------------------------*/
FoamFile
{
    version     2.0;
    format      ascii;
    arch        "LSB;label=32;scalar=64";
    class       volVectorField;
    location    "9/leftGas";
    object      E;
}
// * * * * * * * * * * * * * * * * * * * * * * * * * * * * * * * * * * * * * //

dimensions      [1 1 -3 0 0 -1 0];

internalField   nonuniform List<vector> 
50
(
(1.5 -8.58879e-10 0)
(1.5 -2.10671e-09 0)
(1.5 -2.68773e-09 0)
(1.5 -2.55699e-09 0)
(1.5 -1.87389e-09 0)
(1.5 -1.02111e-09 0)
(1.5 1.02361e-10 0)
(1.5 9.24533e-10 0)
(1.5 9.75812e-10 0)
(1.5 4.17945e-10 0)
(1.5 -1.83755e-09 0)
(1.5 -4.71068e-09 0)
(1.5 -5.97216e-09 0)
(1.5 -5.59902e-09 0)
(1.5 -4.09663e-09 0)
(1.5 -2.00405e-09 0)
(1.5 2.98005e-10 0)
(1.5 1.98297e-09 0)
(1.5 2.11916e-09 0)
(1.5 8.41615e-10 0)
(1.5 -2.06366e-09 0)
(1.5 -5.20079e-09 0)
(1.5 -6.50804e-09 0)
(1.5 -5.99591e-09 0)
(1.5 -4.33724e-09 0)
(1.5 -2.04027e-09 0)
(1.5 5.07497e-10 0)
(1.5 2.2234e-09 0)
(1.5 2.19472e-09 0)
(1.5 8.06857e-10 0)
(1.5 -1.41415e-09 0)
(1.5 -3.77642e-09 0)
(1.5 -4.6637e-09 0)
(1.5 -4.21752e-09 0)
(1.5 -2.99526e-09 0)
(1.5 -1.24877e-09 0)
(1.5 5.37648e-10 0)
(1.5 1.67497e-09 0)
(1.5 1.49497e-09 0)
(1.5 5.2724e-10 0)
(1.5 -5.68468e-10 0)
(1.5 -1.39107e-09 0)
(1.5 -1.62049e-09 0)
(1.5 -1.37676e-09 0)
(1.5 -8.25294e-10 0)
(1.5 -1.63805e-10 0)
(1.5 4.7705e-10 0)
(1.5 7.64677e-10 0)
(1.5 5.62715e-10 0)
(1.5 1.92473e-10 0)
)
;

boundaryField
{
    back
    {
        type            empty;
    }
    down
    {
        type            calculated;
        value           nonuniform List<vector> 5((1.5 -8.58879e-10 0) (1.5 -1.83755e-09 0) (1.5 -2.06366e-09 0) (1.5 -1.41415e-09 0) (1.5 -5.68468e-10 0));
    }
    up
    {
        type            calculated;
        value           nonuniform List<vector> 5((1.5 4.17945e-10 0) (1.5 8.41615e-10 0) (1.5 8.06857e-10 0) (1.5 5.2724e-10 0) (1.5 1.92473e-10 0));
    }
    left
    {
        type            calculated;
        value           nonuniform List<vector> 10((1.5 -8.58879e-10 0) (1.5 -2.10671e-09 0) (1.5 -2.68773e-09 0) (1.5 -2.55699e-09 0) (1.5 -1.87389e-09 0) (1.5 -1.02111e-09 0) (1.5 1.02361e-10 0) (1.5 9.24533e-10 0) (1.5 9.75812e-10 0) (1.5 4.17945e-10 0));
    }
    front
    {
        type            empty;
    }
    leftGas_to_rightDielectric
    {
        type            calculated;
        value           nonuniform List<vector> 10((1.5 -5.68468e-10 0) (1.5 -1.39107e-09 0) (1.5 -1.62049e-09 0) (1.5 -1.37676e-09 0) (1.5 -8.25294e-10 0) (1.5 -1.63805e-10 0) (1.5 4.7705e-10 0) (1.5 7.64677e-10 0) (1.5 5.62715e-10 0) (1.5 1.92473e-10 0));
    }
}


// ************************************************************************* //
