/*--------------------------------*- C++ -*----------------------------------*\
| =========                 |                                                 |
| \\      /  F ield         | OpenFOAM: The Open Source CFD Toolbox           |
|  \\    /   O peration     | Version:  2412                                  |
|   \\  /    A nd           | Website:  www.openfoam.com                      |
|    \\/     M anipulation  |                                                 |
\*---------------------------------------------------------------------------*/
FoamFile
{
    version     2.0;
    format      ascii;
    arch        "LSB;label=32;scalar=64";
    class       volVectorField;
    location    "9/leftGas";
    object      E;
}
// * * * * * * * * * * * * * * * * * * * * * * * * * * * * * * * * * * * * * //

dimensions      [1 1 -3 0 0 -1 0];

internalField   nonuniform List<vector> 
50
(
(5.55112e-16 0 0)
(1.11022e-15 -6.41977e-32 0)
(1.66533e-15 -6.41977e-32 0)
(1.66533e-15 6.41977e-32 0)
(1.11022e-15 8.3457e-32 0)
(5.55112e-16 5.55112e-16 0)
(1.11022e-15 1.77186e-30 0)
(-1.38667e-30 -5.55112e-16 0)
(-5.55112e-16 5.55112e-16 0)
(5.55112e-16 5.55112e-16 0)
(1.66533e-15 5.55112e-16 0)
(1.66533e-15 1.11022e-15 0)
(1.66533e-15 5.55112e-16 0)
(2.22045e-15 -5.55112e-16 0)
(1.11022e-15 -1.11022e-15 0)
(5.55112e-16 -5.55112e-16 0)
(1.54074e-31 -5.55112e-16 0)
(5.55112e-16 -1.11022e-15 0)
(0 -5.3926e-31 0)
(-5.55112e-16 5.55112e-16 0)
(2.22045e-15 0 0)
(2.77556e-15 3.23556e-31 0)
(1.66533e-15 5.55112e-16 0)
(1.11022e-15 -5.55112e-16 0)
(-1.54074e-31 -1.66533e-15 0)
(-3.08149e-31 -5.55112e-16 0)
(-5.55112e-16 -7.70372e-32 0)
(1.84889e-30 -5.55112e-16 0)
(1.66533e-15 -5.55112e-16 0)
(1.11022e-15 5.77779e-31 0)
(2.22045e-15 1.11022e-15 0)
(2.22045e-15 5.55112e-16 0)
(2.22045e-15 -1.11022e-15 0)
(1.11022e-15 -2.22045e-15 0)
(1.54074e-31 -2.22045e-15 0)
(-3.08149e-31 -1.11022e-15 0)
(-5.55112e-16 -5.55112e-16 0)
(-5.55112e-16 1.11022e-15 0)
(1.11022e-15 1.11022e-15 0)
(1.11022e-15 3.08149e-31 0)
(1.11022e-15 0 0)
(3.85186e-32 5.13581e-32 0)
(5.55112e-16 -5.55112e-16 0)
(5.55112e-16 -2.77556e-15 0)
(6.93335e-31 -2.77556e-15 0)
(6.16298e-31 -1.11022e-15 0)
(3.08149e-31 -5.55112e-16 0)
(-1.84889e-30 1.11022e-15 0)
(-1.20178e-30 1.11022e-15 0)
(2.85095e-46 1.71057e-46 0)
)
;

boundaryField
{
    back
    {
        type            empty;
    }
    down
    {
        type            calculated;
        value           nonuniform List<vector> 5((5.55112e-16 0 0) (1.66533e-15 5.55112e-16 0) (2.22045e-15 0 0) (2.22045e-15 1.11022e-15 0) (1.11022e-15 0 0));
    }
    up
    {
        type            calculated;
        value           nonuniform List<vector> 5((5.55112e-16 5.55112e-16 0) (-5.55112e-16 5.55112e-16 0) (1.11022e-15 5.77779e-31 0) (1.11022e-15 3.08149e-31 0) (2.85095e-46 1.71057e-46 0));
    }
    left
    {
        type            calculated;
        value           nonuniform List<vector> 10((5.55112e-16 0 0) (1.11022e-15 -6.41977e-32 0) (1.66533e-15 -6.41977e-32 0) (1.66533e-15 6.41977e-32 0) (1.11022e-15 8.3457e-32 0) (5.55112e-16 5.55112e-16 0) (1.11022e-15 1.77186e-30 0) (-1.38667e-30 -5.55112e-16 0) (-5.55112e-16 5.55112e-16 0) (5.55112e-16 5.55112e-16 0));
    }
    front
    {
        type            empty;
    }
    leftGas_to_rightDielectric
    {
        type            calculated;
        value           nonuniform List<vector> 10((1.11022e-15 0 0) (3.85186e-32 5.13581e-32 0) (5.55112e-16 -5.55112e-16 0) (5.55112e-16 -2.77556e-15 0) (6.93335e-31 -2.77556e-15 0) (6.16298e-31 -1.11022e-15 0) (3.08149e-31 -5.55112e-16 0) (-1.84889e-30 1.11022e-15 0) (-1.20178e-30 1.11022e-15 0) (2.85095e-46 1.71057e-46 0));
    }
}


// ************************************************************************* //
