/*--------------------------------*- C++ -*----------------------------------*\
| =========                 |                                                 |
| \\      /  F ield         | OpenFOAM: The Open Source CFD Toolbox           |
|  \\    /   O peration     | Version:  2412                                  |
|   \\  /    A nd           | Website:  www.openfoam.com                      |
|    \\/     M anipulation  |                                                 |
\*---------------------------------------------------------------------------*/
FoamFile
{
    version     2.0;
    format      ascii;
    arch        "LSB;label=32;scalar=64";
    class       volVectorField;
    location    "2/rightDielectric";
    object      E;
}
// * * * * * * * * * * * * * * * * * * * * * * * * * * * * * * * * * * * * * //

dimensions      [1 1 -3 0 0 -1 0];

internalField   nonuniform List<vector> 
50
(
(0.0666663 -5.87697e-12 0)
(0.0666663 2.86333e-11 0)
(0.0666663 9.92829e-11 0)
(0.0666663 1.99501e-10 0)
(0.0666663 2.92891e-10 0)
(0.0666663 3.07346e-10 0)
(0.0666663 2.48517e-10 0)
(0.0666663 1.20621e-10 0)
(0.0666663 -2.03825e-11 0)
(0.0666663 -4.16696e-11 0)
(0.0666663 2.42407e-11 0)
(0.0666663 9.31315e-11 0)
(0.0666663 1.86788e-10 0)
(0.0666663 2.86709e-10 0)
(0.0666663 3.50431e-10 0)
(0.0666663 3.30938e-10 0)
(0.0666663 2.33355e-10 0)
(0.0666663 8.48525e-11 0)
(0.0666663 -4.86988e-11 0)
(0.0666663 -4.95144e-11 0)
(0.0666663 3.11771e-11 0)
(0.0666663 1.04668e-10 0)
(0.0666663 1.90506e-10 0)
(0.0666663 2.69572e-10 0)
(0.0666663 3.0968e-10 0)
(0.0666663 2.7732e-10 0)
(0.0666663 1.76821e-10 0)
(0.0666663 5.13246e-11 0)
(0.0666663 -4.32791e-11 0)
(0.0666663 -3.79801e-11 0)
(0.0666663 2.23985e-11 0)
(0.0666663 7.67455e-11 0)
(0.0666663 1.34102e-10 0)
(0.0666663 1.84599e-10 0)
(0.0666663 2.02596e-10 0)
(0.0666663 1.71832e-10 0)
(0.0666663 1.05694e-10 0)
(0.0666663 2.86115e-11 0)
(0.0666663 -2.40071e-11 0)
(0.0666663 -2.10047e-11 0)
(0.0666663 9.44187e-12 0)
(0.0666663 2.78584e-11 0)
(0.0666663 4.77338e-11 0)
(0.0666663 6.3992e-11 0)
(0.0666663 6.7829e-11 0)
(0.0666663 5.72362e-11 0)
(0.0666663 3.37562e-11 0)
(0.0666663 9.6288e-12 0)
(0.0666663 -6.68216e-12 0)
(0.0666663 -6.63668e-12 0)
)
;

boundaryField
{
    back
    {
        type            empty;
    }
    down
    {
        type            calculated;
        value           nonuniform List<vector> 5((0.0666663 -5.87697e-12 0) (0.0666663 2.42407e-11 0) (0.0666663 3.11771e-11 0) (0.0666663 2.23985e-11 0) (0.0666663 9.44187e-12 0));
    }
    up
    {
        type            calculated;
        value           nonuniform List<vector> 5((0.0666663 -4.16696e-11 0) (0.0666663 -4.95144e-11 0) (0.0666663 -3.79801e-11 0) (0.0666663 -2.10047e-11 0) (0.0666663 -6.63668e-12 0));
    }
    front
    {
        type            empty;
    }
    right
    {
        type            calculated;
        value           nonuniform List<vector> 10((0.0666663 9.44187e-12 0) (0.0666663 2.78584e-11 0) (0.0666663 4.77338e-11 0) (0.0666663 6.3992e-11 0) (0.0666663 6.7829e-11 0) (0.0666663 5.72362e-11 0) (0.0666663 3.37562e-11 0) (0.0666663 9.6288e-12 0) (0.0666663 -6.68216e-12 0) (0.0666663 -6.63668e-12 0));
    }
    rightDielectric_to_leftGas
    {
        type            calculated;
        value           nonuniform List<vector> 10((0.0666663 -5.87697e-12 0) (0.0666663 2.86333e-11 0) (0.0666663 9.92829e-11 0) (0.0666663 1.99501e-10 0) (0.0666663 2.92891e-10 0) (0.0666663 3.07346e-10 0) (0.0666663 2.48517e-10 0) (0.0666663 1.20621e-10 0) (0.0666663 -2.03825e-11 0) (0.0666663 -4.16696e-11 0));
    }
}


// ************************************************************************* //
