/*--------------------------------*- C++ -*----------------------------------*\
| =========                 |                                                 |
| \\      /  F ield         | OpenFOAM: The Open Source CFD Toolbox           |
|  \\    /   O peration     | Version:  2412                                  |
|   \\  /    A nd           | Website:  www.openfoam.com                      |
|    \\/     M anipulation  |                                                 |
\*---------------------------------------------------------------------------*/
FoamFile
{
    version     2.0;
    format      ascii;
    arch        "LSB;label=32;scalar=64";
    class       volVectorField;
    location    "1/leftGas";
    object      E;
}
// * * * * * * * * * * * * * * * * * * * * * * * * * * * * * * * * * * * * * //

dimensions      [1 1 -3 0 0 -1 0];

internalField   nonuniform List<vector> 
50
(
(1.38778e-16 -6.93889e-17 0)
(4.81482e-33 -6.93889e-17 0)
(6.93889e-17 1.38778e-16 0)
(4.16334e-16 1.38778e-16 0)
(4.85723e-16 5.13581e-32 0)
(4.85723e-16 1.60494e-33 0)
(3.46945e-16 -2.08167e-16 0)
(6.93889e-17 -1.38778e-16 0)
(2.08167e-16 6.93889e-17 0)
(2.77556e-16 0 0)
(6.93889e-17 -6.93889e-17 0)
(2.08167e-16 3.85186e-32 0)
(2.77556e-16 2.77556e-16 0)
(2.77556e-16 2.77556e-16 0)
(2.08167e-16 6.93889e-17 0)
(2.77556e-16 -1.38778e-16 0)
(2.77556e-16 -2.08167e-16 0)
(3.46945e-16 -1.05926e-31 0)
(4.16334e-16 1.38778e-16 0)
(4.85723e-16 6.93889e-17 0)
(2.08167e-16 6.93889e-17 0)
(3.46945e-16 1.38778e-16 0)
(3.46945e-16 2.08167e-16 0)
(2.08167e-16 6.93889e-17 0)
(6.93889e-17 1.92593e-32 0)
(6.93889e-17 6.93889e-17 0)
(2.08167e-16 -1.38778e-16 0)
(2.77556e-16 2.88889e-31 0)
(2.77556e-16 2.08167e-16 0)
(2.77556e-16 6.93889e-17 0)
(2.08167e-16 6.93889e-17 0)
(1.38778e-16 1.38778e-16 0)
(1.38778e-16 1.38778e-16 0)
(1.38778e-16 -2.88889e-32 0)
(2.08167e-16 -6.93889e-17 0)
(6.93889e-17 1.92593e-32 0)
(6.93889e-17 1.92593e-32 0)
(2.08167e-16 6.93889e-17 0)
(1.38778e-16 1.38778e-16 0)
(6.93889e-17 6.93889e-17 0)
(6.93889e-17 0 0)
(1.44445e-32 6.93889e-17 0)
(7.60742e-32 2.08167e-16 0)
(6.93889e-17 1.38778e-16 0)
(1.38778e-16 -6.93889e-17 0)
(6.93889e-17 -6.93889e-17 0)
(6.93889e-17 1.28395e-32 0)
(6.93889e-17 6.93889e-17 0)
(6.93889e-17 6.93889e-17 0)
(1.28395e-32 -6.41977e-33 0)
)
;

boundaryField
{
    back
    {
        type            empty;
    }
    down
    {
        type            calculated;
        value           nonuniform List<vector> 5((1.38778e-16 -6.93889e-17 0) (6.93889e-17 -6.93889e-17 0) (2.08167e-16 6.93889e-17 0) (2.08167e-16 6.93889e-17 0) (6.93889e-17 0 0));
    }
    up
    {
        type            calculated;
        value           nonuniform List<vector> 5((2.77556e-16 0 0) (4.85723e-16 6.93889e-17 0) (2.77556e-16 6.93889e-17 0) (6.93889e-17 6.93889e-17 0) (1.28395e-32 -6.41977e-33 0));
    }
    left
    {
        type            calculated;
        value           nonuniform List<vector> 10((1.38778e-16 -6.93889e-17 0) (4.81482e-33 -6.93889e-17 0) (6.93889e-17 1.38778e-16 0) (4.16334e-16 1.38778e-16 0) (4.85723e-16 5.13581e-32 0) (4.85723e-16 1.60494e-33 0) (3.46945e-16 -2.08167e-16 0) (6.93889e-17 -1.38778e-16 0) (2.08167e-16 6.93889e-17 0) (2.77556e-16 0 0));
    }
    front
    {
        type            empty;
    }
    leftGas_to_rightDielectric
    {
        type            calculated;
        value           nonuniform List<vector> 10((6.93889e-17 0 0) (1.44445e-32 6.93889e-17 0) (7.60742e-32 2.08167e-16 0) (6.93889e-17 1.38778e-16 0) (1.38778e-16 -6.93889e-17 0) (6.93889e-17 -6.93889e-17 0) (6.93889e-17 1.28395e-32 0) (6.93889e-17 6.93889e-17 0) (6.93889e-17 6.93889e-17 0) (1.28395e-32 -6.41977e-33 0));
    }
}


// ************************************************************************* //
