/*--------------------------------*- C++ -*----------------------------------*\
| =========                 |                                                 |
| \\      /  F ield         | OpenFOAM: The Open Source CFD Toolbox           |
|  \\    /   O peration     | Version:  2412                                  |
|   \\  /    A nd           | Website:  www.openfoam.com                      |
|    \\/     M anipulation  |                                                 |
\*---------------------------------------------------------------------------*/
FoamFile
{
    version     2.0;
    format      ascii;
    arch        "LSB;label=32;scalar=64";
    class       volScalarField;
    location    "1/leftGas";
    object      reducedE;
}
// * * * * * * * * * * * * * * * * * * * * * * * * * * * * * * * * * * * * * //

dimensions      [1 4 -3 0 0 -1 0];

internalField   nonuniform List<scalar> 
50
(
6.20634e-42
2.77556e-42
6.20634e-42
1.75542e-41
1.94289e-41
1.94289e-41
1.61841e-41
6.20634e-42
8.77708e-42
1.11022e-41
3.92523e-42
8.32667e-42
1.57009e-41
1.57009e-41
8.77708e-42
1.24127e-41
1.38778e-41
1.38778e-41
1.75542e-41
1.96262e-41
8.77708e-42
1.49468e-41
1.61841e-41
8.77708e-42
2.77556e-42
3.92523e-42
1.00074e-41
1.11022e-41
1.38778e-41
1.14439e-41
8.77708e-42
7.85046e-42
7.85046e-42
5.55112e-42
8.77708e-42
2.77556e-42
2.77556e-42
8.77708e-42
7.85046e-42
3.92523e-42
2.77556e-42
2.77556e-42
8.32667e-42
6.20634e-42
6.20634e-42
3.92523e-42
2.77556e-42
3.92523e-42
3.92523e-42
5.74201e-58
)
;

boundaryField
{
    back
    {
        type            empty;
    }
    down
    {
        type            calculated;
        value           nonuniform List<scalar> 5(6.20634e-42 3.92523e-42 8.77708e-42 8.77708e-42 2.77556e-42);
    }
    up
    {
        type            calculated;
        value           nonuniform List<scalar> 5(1.11022e-41 1.96262e-41 1.14439e-41 3.92523e-42 5.74201e-58);
    }
    left
    {
        type            calculated;
        value           nonuniform List<scalar> 10(6.20634e-42 2.77556e-42 6.20634e-42 1.75542e-41 1.94289e-41 1.94289e-41 1.61841e-41 6.20634e-42 8.77708e-42 1.11022e-41);
    }
    front
    {
        type            empty;
    }
    leftGas_to_rightDielectric
    {
        type            calculated;
        value           nonuniform List<scalar> 10(2.77556e-42 2.77556e-42 8.32667e-42 6.20634e-42 6.20634e-42 3.92523e-42 2.77556e-42 3.92523e-42 3.92523e-42 5.74201e-58);
    }
}


// ************************************************************************* //
