/*--------------------------------*- C++ -*----------------------------------*\
| =========                 |                                                 |
| \\      /  F ield         | OpenFOAM: The Open Source CFD Toolbox           |
|  \\    /   O peration     | Version:  2412                                  |
|   \\  /    A nd           | Website:  www.openfoam.com                      |
|    \\/     M anipulation  |                                                 |
\*---------------------------------------------------------------------------*/
FoamFile
{
    version     2.0;
    format      ascii;
    arch        "LSB;label=32;scalar=64";
    class       volVectorField;
    location    "6/leftGas";
    object      E;
}
// * * * * * * * * * * * * * * * * * * * * * * * * * * * * * * * * * * * * * //

dimensions      [1 1 -3 0 0 -1 0];

internalField   nonuniform List<vector> 
50
(
(1 -4.77461e-10 0)
(1 -1.17421e-09 0)
(1 -1.49939e-09 0)
(1 -1.42637e-09 0)
(1 -1.04376e-09 0)
(1 -5.65825e-10 0)
(1 5.20705e-11 0)
(1 4.98313e-10 0)
(1 5.23979e-10 0)
(1 2.23527e-10 0)
(1 -1.03008e-09 0)
(1 -2.64301e-09 0)
(1 -3.35501e-09 0)
(1 -3.14874e-09 0)
(1 -2.30508e-09 0)
(1 -1.13366e-09 0)
(1 1.40577e-10 0)
(1 1.06038e-09 0)
(1 1.13392e-09 0)
(1 4.49357e-10 0)
(1 -1.17187e-09 0)
(1 -2.9633e-09 0)
(1 -3.72048e-09 0)
(1 -3.44212e-09 0)
(1 -2.50328e-09 0)
(1 -1.20194e-09 0)
(1 2.24253e-10 0)
(1 1.17636e-09 0)
(1 1.17049e-09 0)
(1 4.30112e-10 0)
(1 -8.45039e-10 0)
(1 -2.25925e-09 0)
(1 -2.81489e-09 0)
(1 -2.57874e-09 0)
(1 -1.86591e-09 0)
(1 -8.38541e-10 0)
(1 2.05832e-10 0)
(1 8.72052e-10 0)
(1 7.98653e-10 0)
(1 2.83118e-10 0)
(0.999999 -4.27051e-10 0)
(0.999999 -1.07377e-09 0)
(0.999999 -1.30987e-09 0)
(0.999999 -1.18862e-09 0)
(0.999999 -8.15295e-10 0)
(0.999999 -3.31326e-10 0)
(0.999999 1.47466e-10 0)
(0.999999 3.97677e-10 0)
(0.999999 3.24884e-10 0)
(0.999999 1.1617e-10 0)
)
;

boundaryField
{
    back
    {
        type            empty;
    }
    down
    {
        type            calculated;
        value           nonuniform List<vector> 5((1 -4.77461e-10 0) (1 -1.03008e-09 0) (1 -1.17187e-09 0) (1 -8.45039e-10 0) (0.999999 -4.27051e-10 0));
    }
    up
    {
        type            calculated;
        value           nonuniform List<vector> 5((1 2.23527e-10 0) (1 4.49357e-10 0) (1 4.30112e-10 0) (1 2.83118e-10 0) (0.999999 1.1617e-10 0));
    }
    left
    {
        type            calculated;
        value           nonuniform List<vector> 10((1 -4.77461e-10 0) (1 -1.17421e-09 0) (1 -1.49939e-09 0) (1 -1.42637e-09 0) (1 -1.04376e-09 0) (1 -5.65825e-10 0) (1 5.20705e-11 0) (1 4.98313e-10 0) (1 5.23979e-10 0) (1 2.23527e-10 0));
    }
    front
    {
        type            empty;
    }
    leftGas_to_rightDielectric
    {
        type            calculated;
        value           nonuniform List<vector> 10((0.999999 -4.27051e-10 0) (0.999999 -1.07377e-09 0) (0.999999 -1.30987e-09 0) (0.999999 -1.18862e-09 0) (0.999999 -8.15295e-10 0) (0.999999 -3.31326e-10 0) (0.999999 1.47466e-10 0) (0.999999 3.97677e-10 0) (0.999999 3.24884e-10 0) (0.999999 1.1617e-10 0));
    }
}


// ************************************************************************* //
