/*--------------------------------*- C++ -*----------------------------------*\
| =========                 |                                                 |
| \\      /  F ield         | OpenFOAM: The Open Source CFD Toolbox           |
|  \\    /   O peration     | Version:  2412                                  |
|   \\  /    A nd           | Website:  www.openfoam.com                      |
|    \\/     M anipulation  |                                                 |
\*---------------------------------------------------------------------------*/
FoamFile
{
    version     2.0;
    format      ascii;
    arch        "LSB;label=32;scalar=64";
    class       volVectorField;
    location    "10/leftGas";
    object      E;
}
// * * * * * * * * * * * * * * * * * * * * * * * * * * * * * * * * * * * * * //

dimensions      [1 1 -3 0 0 -1 0];

internalField   nonuniform List<vector> 
50
(
(-4.44089e-15 -1.11022e-15 0)
(-5.55112e-15 4.62223e-31 0)
(-3.33067e-15 2.22045e-15 0)
(-1.11022e-15 1.11022e-15 0)
(-6.68191e-51 -3.85186e-32 0)
(-1.11022e-15 -1.11022e-15 0)
(-3.33067e-15 -2.22045e-15 0)
(-5.55112e-15 -1.11022e-15 0)
(-5.55112e-15 1.11022e-15 0)
(-3.33067e-15 1.11022e-15 0)
(-2.22045e-15 2.31112e-31 0)
(-1.11022e-15 1.11022e-15 0)
(-1.11022e-15 2.22045e-15 0)
(-1.11022e-15 2.22045e-15 0)
(-1.11022e-15 -2.46519e-30 0)
(-2.22045e-15 -2.22045e-15 0)
(-2.22045e-15 -2.22045e-15 0)
(-2.22045e-15 -1.11022e-15 0)
(-2.22045e-15 1.11022e-15 0)
(-2.22045e-15 1.11022e-15 0)
(1.11022e-15 0 0)
(1.11022e-15 1.11022e-15 0)
(-6.93335e-31 2.22045e-15 0)
(3.08149e-31 1.11022e-15 0)
(-2.22045e-15 -1.11022e-15 0)
(-1.11022e-15 -2.22045e-15 0)
(-2.22045e-15 -2.22045e-15 0)
(-1.11022e-15 -1.11022e-15 0)
(-1.11022e-15 1.11022e-15 0)
(-1.11022e-15 1.11022e-15 0)
(1.11022e-15 3.08149e-31 0)
(1.11022e-15 -3.08149e-31 0)
(1.11022e-15 1.11022e-15 0)
(-1.54074e-31 7.70372e-31 0)
(-1.11022e-15 -1.11022e-15 0)
(-1.57156e-30 -2.22045e-15 0)
(-1.54074e-31 -2.22045e-15 0)
(1.11022e-15 -1.54074e-31 0)
(1.11022e-15 1.11022e-15 0)
(-2.05433e-31 1.11022e-15 0)
(6.68191e-51 0 0)
(7.70372e-32 1.11022e-15 0)
(1.11022e-15 1.11022e-15 0)
(0 -1.11022e-15 0)
(2.77334e-31 -1.11022e-15 0)
(9.24446e-31 -1.11022e-15 0)
(1.11022e-15 -1.11022e-15 0)
(1.11022e-15 2.05433e-31 0)
(1.11022e-15 1.02716e-31 0)
(2.05433e-31 -1.02716e-31 0)
)
;

boundaryField
{
    back
    {
        type            empty;
    }
    down
    {
        type            calculated;
        value           nonuniform List<vector> 5((-4.44089e-15 -1.11022e-15 0) (-2.22045e-15 2.31112e-31 0) (1.11022e-15 0 0) (1.11022e-15 3.08149e-31 0) (6.68191e-51 0 0));
    }
    up
    {
        type            calculated;
        value           nonuniform List<vector> 5((-3.33067e-15 1.11022e-15 0) (-2.22045e-15 1.11022e-15 0) (-1.11022e-15 1.11022e-15 0) (-2.05433e-31 1.11022e-15 0) (2.05433e-31 -1.02716e-31 0));
    }
    left
    {
        type            calculated;
        value           nonuniform List<vector> 10((-4.44089e-15 -1.11022e-15 0) (-5.55112e-15 4.62223e-31 0) (-3.33067e-15 2.22045e-15 0) (-1.11022e-15 1.11022e-15 0) (-6.68191e-51 -3.85186e-32 0) (-1.11022e-15 -1.11022e-15 0) (-3.33067e-15 -2.22045e-15 0) (-5.55112e-15 -1.11022e-15 0) (-5.55112e-15 1.11022e-15 0) (-3.33067e-15 1.11022e-15 0));
    }
    front
    {
        type            empty;
    }
    leftGas_to_rightDielectric
    {
        type            calculated;
        value           nonuniform List<vector> 10((6.68191e-51 0 0) (7.70372e-32 1.11022e-15 0) (1.11022e-15 1.11022e-15 0) (0 -1.11022e-15 0) (2.77334e-31 -1.11022e-15 0) (9.24446e-31 -1.11022e-15 0) (1.11022e-15 -1.11022e-15 0) (1.11022e-15 2.05433e-31 0) (1.11022e-15 1.02716e-31 0) (2.05433e-31 -1.02716e-31 0));
    }
}


// ************************************************************************* //
