/*--------------------------------*- C++ -*----------------------------------*\
| =========                 |                                                 |
| \\      /  F ield         | OpenFOAM: The Open Source CFD Toolbox           |
|  \\    /   O peration     | Version:  2412                                  |
|   \\  /    A nd           | Website:  www.openfoam.com                      |
|    \\/     M anipulation  |                                                 |
\*---------------------------------------------------------------------------*/
FoamFile
{
    version     2.0;
    format      ascii;
    arch        "LSB;label=32;scalar=64";
    class       volScalarField;
    location    "10/leftGas";
    object      reducedE;
}
// * * * * * * * * * * * * * * * * * * * * * * * * * * * * * * * * * * * * * //

dimensions      [1 4 -3 0 0 -1 0];

internalField   nonuniform List<scalar> 
50
(
1.83103e-40
2.22045e-40
1.60119e-40
6.28037e-41
1.54074e-57
6.28037e-41
1.60119e-40
2.26442e-40
2.26442e-40
1.40433e-40
8.88178e-41
6.28037e-41
9.93014e-41
9.93014e-41
4.44089e-41
1.25607e-40
1.25607e-40
9.93014e-41
9.93014e-41
9.93014e-41
4.44089e-41
6.28037e-41
8.88178e-41
4.44089e-41
9.93014e-41
9.93014e-41
1.25607e-40
6.28037e-41
6.28037e-41
6.28037e-41
4.44089e-41
4.44089e-41
6.28037e-41
3.14251e-56
6.28037e-41
8.88178e-41
8.88178e-41
4.44089e-41
6.28037e-41
4.44089e-41
2.67276e-76
4.44089e-41
6.28037e-41
4.44089e-41
4.44089e-41
4.44089e-41
6.28037e-41
4.44089e-41
4.44089e-41
9.18722e-57
)
;

boundaryField
{
    back
    {
        type            empty;
    }
    down
    {
        type            calculated;
        value           nonuniform List<scalar> 5(1.83103e-40 8.88178e-41 4.44089e-41 4.44089e-41 2.67276e-76);
    }
    up
    {
        type            calculated;
        value           nonuniform List<scalar> 5(1.40433e-40 9.93014e-41 6.28037e-41 4.44089e-41 9.18722e-57);
    }
    left
    {
        type            calculated;
        value           nonuniform List<scalar> 10(1.83103e-40 2.22045e-40 1.60119e-40 6.28037e-41 1.54074e-57 6.28037e-41 1.60119e-40 2.26442e-40 2.26442e-40 1.40433e-40);
    }
    front
    {
        type            empty;
    }
    leftGas_to_rightDielectric
    {
        type            calculated;
        value           nonuniform List<scalar> 10(2.67276e-76 4.44089e-41 6.28037e-41 4.44089e-41 4.44089e-41 4.44089e-41 6.28037e-41 4.44089e-41 4.44089e-41 9.18722e-57);
    }
}


// ************************************************************************* //
