/*--------------------------------*- C++ -*----------------------------------*\
| =========                 |                                                 |
| \\      /  F ield         | OpenFOAM: The Open Source CFD Toolbox           |
|  \\    /   O peration     | Version:  2412                                  |
|   \\  /    A nd           | Website:  www.openfoam.com                      |
|    \\/     M anipulation  |                                                 |
\*---------------------------------------------------------------------------*/
FoamFile
{
    version     2.0;
    format      ascii;
    arch        "LSB;label=32;scalar=64";
    class       volVectorField;
    location    "7/leftGas";
    object      E;
}
// * * * * * * * * * * * * * * * * * * * * * * * * * * * * * * * * * * * * * //

dimensions      [1 1 -3 0 0 -1 0];

internalField   nonuniform List<vector> 
50
(
(1.16667 -8.58864e-10 0)
(1.16667 -2.10667e-09 0)
(1.16667 -2.68768e-09 0)
(1.16667 -2.55694e-09 0)
(1.16667 -1.87386e-09 0)
(1.16667 -1.0211e-09 0)
(1.16667 1.02359e-10 0)
(1.16667 9.24517e-10 0)
(1.16667 9.75794e-10 0)
(1.16667 4.17936e-10 0)
(1.16667 -1.83752e-09 0)
(1.16667 -4.7106e-09 0)
(1.16667 -5.97205e-09 0)
(1.16667 -5.59892e-09 0)
(1.16667 -4.09655e-09 0)
(1.16667 -2.00402e-09 0)
(1.16667 2.98e-10 0)
(1.16667 1.98293e-09 0)
(1.16667 2.11912e-09 0)
(1.16667 8.416e-10 0)
(1.16667 -2.06362e-09 0)
(1.16667 -5.20069e-09 0)
(1.16667 -6.50792e-09 0)
(1.16667 -5.99581e-09 0)
(1.16667 -4.33716e-09 0)
(1.16667 -2.04024e-09 0)
(1.16667 5.07489e-10 0)
(1.16667 2.22336e-09 0)
(1.16667 2.19468e-09 0)
(1.16667 8.06842e-10 0)
(1.16667 -1.41413e-09 0)
(1.16667 -3.77635e-09 0)
(1.16667 -4.66362e-09 0)
(1.16667 -4.21744e-09 0)
(1.16667 -2.99521e-09 0)
(1.16667 -1.24875e-09 0)
(1.16667 5.37639e-10 0)
(1.16667 1.67494e-09 0)
(1.16667 1.49494e-09 0)
(1.16667 5.2723e-10 0)
(1.16666 -5.68457e-10 0)
(1.16666 -1.39104e-09 0)
(1.16666 -1.62046e-09 0)
(1.16666 -1.37674e-09 0)
(1.16666 -8.25278e-10 0)
(1.16666 -1.63801e-10 0)
(1.16666 4.77042e-10 0)
(1.16666 7.64664e-10 0)
(1.16666 5.62705e-10 0)
(1.16666 1.9247e-10 0)
)
;

boundaryField
{
    back
    {
        type            empty;
    }
    down
    {
        type            calculated;
        value           nonuniform List<vector> 5((1.16667 -8.58864e-10 0) (1.16667 -1.83752e-09 0) (1.16667 -2.06362e-09 0) (1.16667 -1.41413e-09 0) (1.16666 -5.68457e-10 0));
    }
    up
    {
        type            calculated;
        value           nonuniform List<vector> 5((1.16667 4.17936e-10 0) (1.16667 8.416e-10 0) (1.16667 8.06842e-10 0) (1.16667 5.2723e-10 0) (1.16666 1.9247e-10 0));
    }
    left
    {
        type            calculated;
        value           nonuniform List<vector> 10((1.16667 -8.58864e-10 0) (1.16667 -2.10667e-09 0) (1.16667 -2.68768e-09 0) (1.16667 -2.55694e-09 0) (1.16667 -1.87386e-09 0) (1.16667 -1.0211e-09 0) (1.16667 1.02359e-10 0) (1.16667 9.24517e-10 0) (1.16667 9.75794e-10 0) (1.16667 4.17936e-10 0));
    }
    front
    {
        type            empty;
    }
    leftGas_to_rightDielectric
    {
        type            calculated;
        value           nonuniform List<vector> 10((1.16666 -5.68457e-10 0) (1.16666 -1.39104e-09 0) (1.16666 -1.62046e-09 0) (1.16666 -1.37674e-09 0) (1.16666 -8.25278e-10 0) (1.16666 -1.63801e-10 0) (1.16666 4.77042e-10 0) (1.16666 7.64664e-10 0) (1.16666 5.62705e-10 0) (1.16666 1.9247e-10 0));
    }
}


// ************************************************************************* //
