/*--------------------------------*- C++ -*----------------------------------*\
| =========                 |                                                 |
| \\      /  F ield         | OpenFOAM: The Open Source CFD Toolbox           |
|  \\    /   O peration     | Version:  2412                                  |
|   \\  /    A nd           | Website:  www.openfoam.com                      |
|    \\/     M anipulation  |                                                 |
\*---------------------------------------------------------------------------*/
FoamFile
{
    version     2.0;
    format      ascii;
    arch        "LSB;label=32;scalar=64";
    class       volScalarField;
    location    "8/leftGas";
    object      reducedE;
}
// * * * * * * * * * * * * * * * * * * * * * * * * * * * * * * * * * * * * * //

dimensions      [1 4 -3 0 0 -1 0];

internalField   nonuniform List<scalar> 
50
(
5.33334e-26
5.33334e-26
5.33334e-26
5.33334e-26
5.33334e-26
5.33334e-26
5.33334e-26
5.33334e-26
5.33334e-26
5.33334e-26
5.33334e-26
5.33334e-26
5.33334e-26
5.33334e-26
5.33334e-26
5.33334e-26
5.33334e-26
5.33334e-26
5.33334e-26
5.33334e-26
5.33334e-26
5.33334e-26
5.33334e-26
5.33334e-26
5.33334e-26
5.33334e-26
5.33334e-26
5.33334e-26
5.33334e-26
5.33334e-26
5.33334e-26
5.33334e-26
5.33334e-26
5.33334e-26
5.33334e-26
5.33334e-26
5.33334e-26
5.33334e-26
5.33334e-26
5.33334e-26
5.33332e-26
5.33332e-26
5.33332e-26
5.33332e-26
5.33332e-26
5.33332e-26
5.33332e-26
5.33332e-26
5.33332e-26
5.33332e-26
)
;

boundaryField
{
    back
    {
        type            empty;
    }
    down
    {
        type            calculated;
        value           nonuniform List<scalar> 5(5.33334e-26 5.33334e-26 5.33334e-26 5.33334e-26 5.33332e-26);
    }
    up
    {
        type            calculated;
        value           nonuniform List<scalar> 5(5.33334e-26 5.33334e-26 5.33334e-26 5.33334e-26 5.33332e-26);
    }
    left
    {
        type            calculated;
        value           nonuniform List<scalar> 10(5.33334e-26 5.33334e-26 5.33334e-26 5.33334e-26 5.33334e-26 5.33334e-26 5.33334e-26 5.33334e-26 5.33334e-26 5.33334e-26);
    }
    front
    {
        type            empty;
    }
    leftGas_to_rightDielectric
    {
        type            calculated;
        value           nonuniform List<scalar> 10(5.33332e-26 5.33332e-26 5.33332e-26 5.33332e-26 5.33332e-26 5.33332e-26 5.33332e-26 5.33332e-26 5.33332e-26 5.33332e-26);
    }
}


// ************************************************************************* //
