/*--------------------------------*- C++ -*----------------------------------*\
| =========                 |                                                 |
| \\      /  F ield         | OpenFOAM: The Open Source CFD Toolbox           |
|  \\    /   O peration     | Version:  2412                                  |
|   \\  /    A nd           | Website:  www.openfoam.com                      |
|    \\/     M anipulation  |                                                 |
\*---------------------------------------------------------------------------*/
FoamFile
{
    version     2.0;
    format      ascii;
    arch        "LSB;label=32;scalar=64";
    class       volVectorField;
    location    "4/rightDielectric";
    object      E;
}
// * * * * * * * * * * * * * * * * * * * * * * * * * * * * * * * * * * * * * //

dimensions      [1 1 -3 0 0 -1 0];

internalField   nonuniform List<vector> 
50
(
(0.133333 -1.11009e-11 0)
(0.133333 5.40856e-11 0)
(0.133333 1.87535e-10 0)
(0.133333 3.76837e-10 0)
(0.133333 5.53242e-10 0)
(0.133333 5.80544e-10 0)
(0.133333 4.69422e-10 0)
(0.133333 2.27841e-10 0)
(0.133333 -3.85005e-11 0)
(0.133333 -7.87098e-11 0)
(0.133333 4.57882e-11 0)
(0.133333 1.75916e-10 0)
(0.133333 3.52824e-10 0)
(0.133333 5.41565e-10 0)
(0.133333 6.61929e-10 0)
(0.133333 6.25107e-10 0)
(0.133333 4.40784e-10 0)
(0.133333 1.60278e-10 0)
(0.133333 -9.19872e-11 0)
(0.133333 -9.35278e-11 0)
(0.133333 5.88905e-11 0)
(0.133333 1.97707e-10 0)
(0.133333 3.59847e-10 0)
(0.133333 5.09195e-10 0)
(0.133333 5.84953e-10 0)
(0.133333 5.2383e-10 0)
(0.133333 3.33996e-10 0)
(0.133333 9.6947e-11 0)
(0.133333 -8.17499e-11 0)
(0.133333 -7.17406e-11 0)
(0.133333 4.23086e-11 0)
(0.133333 1.44965e-10 0)
(0.133333 2.53305e-10 0)
(0.133333 3.48689e-10 0)
(0.133333 3.82682e-10 0)
(0.133333 3.24574e-10 0)
(0.133333 1.99646e-10 0)
(0.133333 5.40443e-11 0)
(0.133333 -4.5347e-11 0)
(0.133333 -3.96758e-11 0)
(0.133333 1.78347e-11 0)
(0.133333 5.26217e-11 0)
(0.133333 9.01643e-11 0)
(0.133333 1.20874e-10 0)
(0.133333 1.28122e-10 0)
(0.133333 1.08113e-10 0)
(0.133333 6.37621e-11 0)
(0.133333 1.81878e-11 0)
(0.133333 -1.26219e-11 0)
(0.133333 -1.2536e-11 0)
)
;

boundaryField
{
    back
    {
        type            empty;
    }
    down
    {
        type            calculated;
        value           nonuniform List<vector> 5((0.133333 -1.11009e-11 0) (0.133333 4.57882e-11 0) (0.133333 5.88905e-11 0) (0.133333 4.23086e-11 0) (0.133333 1.78347e-11 0));
    }
    up
    {
        type            calculated;
        value           nonuniform List<vector> 5((0.133333 -7.87098e-11 0) (0.133333 -9.35278e-11 0) (0.133333 -7.17406e-11 0) (0.133333 -3.96758e-11 0) (0.133333 -1.2536e-11 0));
    }
    front
    {
        type            empty;
    }
    right
    {
        type            calculated;
        value           nonuniform List<vector> 10((0.133333 1.78347e-11 0) (0.133333 5.26217e-11 0) (0.133333 9.01643e-11 0) (0.133333 1.20874e-10 0) (0.133333 1.28122e-10 0) (0.133333 1.08113e-10 0) (0.133333 6.37621e-11 0) (0.133333 1.81878e-11 0) (0.133333 -1.26219e-11 0) (0.133333 -1.2536e-11 0));
    }
    rightDielectric_to_leftGas
    {
        type            calculated;
        value           nonuniform List<vector> 10((0.133333 -1.11009e-11 0) (0.133333 5.40856e-11 0) (0.133333 1.87535e-10 0) (0.133333 3.76837e-10 0) (0.133333 5.53242e-10 0) (0.133333 5.80544e-10 0) (0.133333 4.69422e-10 0) (0.133333 2.27841e-10 0) (0.133333 -3.85005e-11 0) (0.133333 -7.87098e-11 0));
    }
}


// ************************************************************************* //
