/*--------------------------------*- C++ -*----------------------------------*\
| =========                 |                                                 |
| \\      /  F ield         | OpenFOAM: The Open Source CFD Toolbox           |
|  \\    /   O peration     | Version:  2412                                  |
|   \\  /    A nd           | Website:  www.openfoam.com                      |
|    \\/     M anipulation  |                                                 |
\*---------------------------------------------------------------------------*/
FoamFile
{
    version     2.0;
    format      ascii;
    arch        "LSB;label=32;scalar=64";
    class       volVectorField;
    location    "3/leftGas";
    object      E;
}
// * * * * * * * * * * * * * * * * * * * * * * * * * * * * * * * * * * * * * //

dimensions      [1 1 -3 0 0 -1 0];

internalField   nonuniform List<vector> 
50
(
(0.500001 -2.52771e-10 0)
(0.500001 -6.21636e-10 0)
(0.500001 -7.93789e-10 0)
(0.500001 -7.55127e-10 0)
(0.500001 -5.52571e-10 0)
(0.500001 -2.99551e-10 0)
(0.500001 2.75662e-11 0)
(0.500001 2.6381e-10 0)
(0.500001 2.77398e-10 0)
(0.500001 1.18336e-10 0)
(0.500001 -5.4533e-10 0)
(0.500001 -1.39923e-09 0)
(0.500001 -1.77617e-09 0)
(0.500001 -1.66696e-09 0)
(0.500001 -1.22033e-09 0)
(0.500001 -6.00168e-10 0)
(0.500001 7.44223e-11 0)
(0.500001 5.61371e-10 0)
(0.500001 6.00306e-10 0)
(0.500001 2.37892e-10 0)
(0.500001 -6.20398e-10 0)
(0.500001 -1.56879e-09 0)
(0.500001 -1.96965e-09 0)
(0.500001 -1.82228e-09 0)
(0.500001 -1.32526e-09 0)
(0.500001 -6.36317e-10 0)
(0.500001 1.18721e-10 0)
(0.500001 6.22772e-10 0)
(0.500001 6.19668e-10 0)
(0.500001 2.27704e-10 0)
(0.500001 -4.47369e-10 0)
(0.500001 -1.19606e-09 0)
(0.500001 -1.49022e-09 0)
(0.500001 -1.3652e-09 0)
(0.500001 -9.87828e-10 0)
(0.500001 -4.43929e-10 0)
(0.500001 1.08969e-10 0)
(0.500001 4.6167e-10 0)
(0.500001 4.22812e-10 0)
(0.500001 1.49885e-10 0)
(0.499999 -2.26084e-10 0)
(0.499999 -5.6846e-10 0)
(0.499999 -6.93453e-10 0)
(0.499999 -6.29262e-10 0)
(0.499999 -4.31623e-10 0)
(0.499999 -1.75406e-10 0)
(0.499999 7.80694e-11 0)
(0.499999 2.10533e-10 0)
(0.499999 1.71996e-10 0)
(0.499999 6.15012e-11 0)
)
;

boundaryField
{
    back
    {
        type            empty;
    }
    down
    {
        type            calculated;
        value           nonuniform List<vector> 5((0.500001 -2.52771e-10 0) (0.500001 -5.4533e-10 0) (0.500001 -6.20398e-10 0) (0.500001 -4.47369e-10 0) (0.499999 -2.26084e-10 0));
    }
    up
    {
        type            calculated;
        value           nonuniform List<vector> 5((0.500001 1.18336e-10 0) (0.500001 2.37892e-10 0) (0.500001 2.27704e-10 0) (0.500001 1.49885e-10 0) (0.499999 6.15012e-11 0));
    }
    left
    {
        type            calculated;
        value           nonuniform List<vector> 10((0.500001 -2.52771e-10 0) (0.500001 -6.21636e-10 0) (0.500001 -7.93789e-10 0) (0.500001 -7.55127e-10 0) (0.500001 -5.52571e-10 0) (0.500001 -2.99551e-10 0) (0.500001 2.75662e-11 0) (0.500001 2.6381e-10 0) (0.500001 2.77398e-10 0) (0.500001 1.18336e-10 0));
    }
    front
    {
        type            empty;
    }
    leftGas_to_rightDielectric
    {
        type            calculated;
        value           nonuniform List<vector> 10((0.499999 -2.26084e-10 0) (0.499999 -5.6846e-10 0) (0.499999 -6.93453e-10 0) (0.499999 -6.29262e-10 0) (0.499999 -4.31623e-10 0) (0.499999 -1.75406e-10 0) (0.499999 7.80694e-11 0) (0.499999 2.10533e-10 0) (0.499999 1.71996e-10 0) (0.499999 6.15012e-11 0));
    }
}


// ************************************************************************* //
