/*--------------------------------*- C++ -*----------------------------------*\
| =========                 |                                                 |
| \\      /  F ield         | OpenFOAM: The Open Source CFD Toolbox           |
|  \\    /   O peration     | Version:  2412                                  |
|   \\  /    A nd           | Website:  www.openfoam.com                      |
|    \\/     M anipulation  |                                                 |
\*---------------------------------------------------------------------------*/
FoamFile
{
    version     2.0;
    format      ascii;
    arch        "LSB;label=32;scalar=64";
    class       volVectorField;
    location    "10/rightDielectric";
    object      E;
}
// * * * * * * * * * * * * * * * * * * * * * * * * * * * * * * * * * * * * * //

dimensions      [1 1 -3 0 0 -1 0];

internalField   nonuniform List<vector> 
50
(
(0.333332 -1.02812e-10 0)
(0.333332 -1.22572e-10 0)
(0.333332 3.97805e-11 0)
(0.333332 3.7304e-10 0)
(0.333332 7.40721e-10 0)
(0.333332 8.65379e-10 0)
(0.333332 7.40273e-10 0)
(0.333332 3.5539e-10 0)
(0.333332 -1.02455e-10 0)
(0.333332 -1.55729e-10 0)
(0.333332 3.60463e-11 0)
(0.333332 1.92376e-10 0)
(0.333332 4.67045e-10 0)
(0.333332 8.0243e-10 0)
(0.333332 1.04452e-09 0)
(0.333332 1.01479e-09 0)
(0.333332 7.16625e-10 0)
(0.333332 2.33164e-10 0)
(0.333332 -2.08185e-10 0)
(0.333332 -1.86706e-10 0)
(0.333332 8.09861e-11 0)
(0.333332 2.88967e-10 0)
(0.333332 5.57723e-10 0)
(0.333332 8.24238e-10 0)
(0.333332 9.72882e-10 0)
(0.333332 8.78577e-10 0)
(0.333332 5.48784e-10 0)
(0.333332 1.29904e-10 0)
(0.333332 -1.83097e-10 0)
(0.333332 -1.44407e-10 0)
(0.333332 6.37803e-11 0)
(0.333332 2.28548e-10 0)
(0.333332 4.12531e-10 0)
(0.333332 5.83303e-10 0)
(0.333332 6.49211e-10 0)
(0.333332 5.49683e-10 0)
(0.333332 3.28574e-10 0)
(0.333332 6.93306e-11 0)
(0.333332 -1.04027e-10 0)
(0.333332 -8.07954e-11 0)
(0.333332 2.86121e-11 0)
(0.333332 8.51393e-11 0)
(0.333332 1.49464e-10 0)
(0.333332 2.04342e-10 0)
(0.333332 2.18362e-10 0)
(0.333332 1.83605e-10 0)
(0.333332 1.04417e-10 0)
(0.333332 2.33494e-11 0)
(0.333332 -3.01188e-11 0)
(0.333332 -2.56992e-11 0)
)
;

boundaryField
{
    back
    {
        type            empty;
    }
    down
    {
        type            calculated;
        value           nonuniform List<vector> 5((0.333332 -1.02812e-10 0) (0.333332 3.60463e-11 0) (0.333332 8.09861e-11 0) (0.333332 6.37803e-11 0) (0.333332 2.86121e-11 0));
    }
    up
    {
        type            calculated;
        value           nonuniform List<vector> 5((0.333332 -1.55729e-10 0) (0.333332 -1.86706e-10 0) (0.333332 -1.44407e-10 0) (0.333332 -8.07954e-11 0) (0.333332 -2.56992e-11 0));
    }
    front
    {
        type            empty;
    }
    right
    {
        type            calculated;
        value           nonuniform List<vector> 10((0.333332 2.86121e-11 0) (0.333332 8.51393e-11 0) (0.333332 1.49464e-10 0) (0.333332 2.04342e-10 0) (0.333332 2.18362e-10 0) (0.333332 1.83605e-10 0) (0.333332 1.04417e-10 0) (0.333332 2.33494e-11 0) (0.333332 -3.01188e-11 0) (0.333332 -2.56992e-11 0));
    }
    rightDielectric_to_leftGas
    {
        type            calculated;
        value           nonuniform List<vector> 10((0.333332 -1.02812e-10 0) (0.333332 -1.22572e-10 0) (0.333332 3.97805e-11 0) (0.333332 3.7304e-10 0) (0.333332 7.40721e-10 0) (0.333332 8.65379e-10 0) (0.333332 7.40273e-10 0) (0.333332 3.5539e-10 0) (0.333332 -1.02455e-10 0) (0.333332 -1.55729e-10 0));
    }
}


// ************************************************************************* //
