/*--------------------------------*- C++ -*----------------------------------*\
| =========                 |                                                 |
| \\      /  F ield         | OpenFOAM: The Open Source CFD Toolbox           |
|  \\    /   O peration     | Version:  2412                                  |
|   \\  /    A nd           | Website:  www.openfoam.com                      |
|    \\/     M anipulation  |                                                 |
\*---------------------------------------------------------------------------*/
FoamFile
{
    version     2.0;
    format      ascii;
    arch        "LSB;label=32;scalar=64";
    class       volVectorField;
    location    "7/rightDielectric";
    object      E;
}
// * * * * * * * * * * * * * * * * * * * * * * * * * * * * * * * * * * * * * //

dimensions      [1 1 -3 0 0 -1 0];

internalField   nonuniform List<vector> 
50
(
(0.233332 -2.09694e-11 0)
(0.233332 1.02161e-10 0)
(0.233332 3.54234e-10 0)
(0.233332 7.11806e-10 0)
(0.233332 1.04502e-09 0)
(0.233332 1.09659e-09 0)
(0.233332 8.86691e-10 0)
(0.233332 4.30366e-10 0)
(0.233332 -7.27258e-11 0)
(0.233332 -1.48676e-10 0)
(0.233332 8.64892e-11 0)
(0.233332 3.32287e-10 0)
(0.233332 6.66449e-10 0)
(0.233332 1.02296e-09 0)
(0.233332 1.25032e-09 0)
(0.233332 1.18077e-09 0)
(0.233332 8.32598e-10 0)
(0.233332 3.02747e-10 0)
(0.233332 -1.73757e-10 0)
(0.233332 -1.76666e-10 0)
(0.233332 1.11238e-10 0)
(0.233332 3.73448e-10 0)
(0.233332 6.79716e-10 0)
(0.233332 9.61819e-10 0)
(0.233332 1.10492e-09 0)
(0.233332 9.89463e-10 0)
(0.233332 6.30886e-10 0)
(0.233332 1.83122e-10 0)
(0.233332 -1.54419e-10 0)
(0.233332 -1.35512e-10 0)
(0.233332 7.99167e-11 0)
(0.233332 2.73824e-10 0)
(0.233332 4.78469e-10 0)
(0.233332 6.5864e-10 0)
(0.233332 7.2285e-10 0)
(0.233332 6.13088e-10 0)
(0.233332 3.77112e-10 0)
(0.233332 1.02084e-10 0)
(0.233332 -8.56567e-11 0)
(0.233332 -7.4944e-11 0)
(0.233332 3.36881e-11 0)
(0.233332 9.93974e-11 0)
(0.233332 1.70312e-10 0)
(0.233332 2.2832e-10 0)
(0.233332 2.4201e-10 0)
(0.233332 2.04216e-10 0)
(0.233332 1.2044e-10 0)
(0.233332 3.43549e-11 0)
(0.233332 -2.38418e-11 0)
(0.233332 -2.36795e-11 0)
)
;

boundaryField
{
    back
    {
        type            empty;
    }
    down
    {
        type            calculated;
        value           nonuniform List<vector> 5((0.233332 -2.09694e-11 0) (0.233332 8.64892e-11 0) (0.233332 1.11238e-10 0) (0.233332 7.99167e-11 0) (0.233332 3.36881e-11 0));
    }
    up
    {
        type            calculated;
        value           nonuniform List<vector> 5((0.233332 -1.48676e-10 0) (0.233332 -1.76666e-10 0) (0.233332 -1.35512e-10 0) (0.233332 -7.4944e-11 0) (0.233332 -2.36795e-11 0));
    }
    front
    {
        type            empty;
    }
    right
    {
        type            calculated;
        value           nonuniform List<vector> 10((0.233332 3.36881e-11 0) (0.233332 9.93974e-11 0) (0.233332 1.70312e-10 0) (0.233332 2.2832e-10 0) (0.233332 2.4201e-10 0) (0.233332 2.04216e-10 0) (0.233332 1.2044e-10 0) (0.233332 3.43549e-11 0) (0.233332 -2.38418e-11 0) (0.233332 -2.36795e-11 0));
    }
    rightDielectric_to_leftGas
    {
        type            calculated;
        value           nonuniform List<vector> 10((0.233332 -2.09694e-11 0) (0.233332 1.02161e-10 0) (0.233332 3.54234e-10 0) (0.233332 7.11806e-10 0) (0.233332 1.04502e-09 0) (0.233332 1.09659e-09 0) (0.233332 8.86691e-10 0) (0.233332 4.30366e-10 0) (0.233332 -7.27258e-11 0) (0.233332 -1.48676e-10 0));
    }
}


// ************************************************************************* //
