/*--------------------------------*- C++ -*----------------------------------*\
| =========                 |                                                 |
| \\      /  F ield         | OpenFOAM: The Open Source CFD Toolbox           |
|  \\    /   O peration     | Version:  2412                                  |
|   \\  /    A nd           | Website:  www.openfoam.com                      |
|    \\/     M anipulation  |                                                 |
\*---------------------------------------------------------------------------*/
FoamFile
{
    version     2.0;
    format      ascii;
    arch        "LSB;label=32;scalar=64";
    class       volVectorField;
    location    "10/leftGas";
    object      E;
}
// * * * * * * * * * * * * * * * * * * * * * * * * * * * * * * * * * * * * * //

dimensions      [1 1 -3 0 0 -1 0];

internalField   nonuniform List<vector> 
50
(
(1.66667 -9.01881e-10 0)
(1.66667 -2.21798e-09 0)
(1.66667 -2.83221e-09 0)
(1.66667 -2.69426e-09 0)
(1.66667 -1.97154e-09 0)
(1.66667 -1.06877e-09 0)
(1.66667 9.83845e-11 0)
(1.66667 9.41298e-10 0)
(1.66667 9.89768e-10 0)
(1.66667 4.22227e-10 0)
(1.66667 -1.94572e-09 0)
(1.66667 -4.99239e-09 0)
(1.66667 -6.33729e-09 0)
(1.66667 -5.94764e-09 0)
(1.66667 -4.35402e-09 0)
(1.66667 -2.1413e-09 0)
(1.66667 2.65626e-10 0)
(1.66667 2.00304e-09 0)
(1.66667 2.14193e-09 0)
(1.66667 8.48813e-10 0)
(1.66667 -2.21355e-09 0)
(1.66667 -5.59736e-09 0)
(1.66667 -7.02758e-09 0)
(1.66667 -6.50174e-09 0)
(1.66667 -4.72834e-09 0)
(1.66667 -2.27021e-09 0)
(1.66667 4.23747e-10 0)
(1.66667 2.22217e-09 0)
(1.66667 2.21105e-09 0)
(1.66667 8.12471e-10 0)
(1.66667 -1.59617e-09 0)
(1.66667 -4.26742e-09 0)
(1.66667 -5.31692e-09 0)
(1.66667 -4.87081e-09 0)
(1.66667 -3.52431e-09 0)
(1.66667 -1.58369e-09 0)
(1.66667 3.89025e-10 0)
(1.66667 1.64741e-09 0)
(1.66667 1.50871e-09 0)
(1.66667 5.34826e-10 0)
(1.66666 -8.06607e-10 0)
(1.66666 -2.02809e-09 0)
(1.66666 -2.47397e-09 0)
(1.66666 -2.24487e-09 0)
(1.66666 -1.53967e-09 0)
(1.66666 -6.25488e-10 0)
(1.66666 2.78874e-10 0)
(1.66666 7.51435e-10 0)
(1.66666 6.13843e-10 0)
(1.66666 2.19492e-10 0)
)
;

boundaryField
{
    back
    {
        type            empty;
    }
    down
    {
        type            calculated;
        value           nonuniform List<vector> 5((1.66667 -9.01881e-10 0) (1.66667 -1.94572e-09 0) (1.66667 -2.21355e-09 0) (1.66667 -1.59617e-09 0) (1.66666 -8.06607e-10 0));
    }
    up
    {
        type            calculated;
        value           nonuniform List<vector> 5((1.66667 4.22227e-10 0) (1.66667 8.48813e-10 0) (1.66667 8.12471e-10 0) (1.66667 5.34826e-10 0) (1.66666 2.19492e-10 0));
    }
    left
    {
        type            calculated;
        value           nonuniform List<vector> 10((1.66667 -9.01881e-10 0) (1.66667 -2.21798e-09 0) (1.66667 -2.83221e-09 0) (1.66667 -2.69426e-09 0) (1.66667 -1.97154e-09 0) (1.66667 -1.06877e-09 0) (1.66667 9.83845e-11 0) (1.66667 9.41298e-10 0) (1.66667 9.89768e-10 0) (1.66667 4.22227e-10 0));
    }
    front
    {
        type            empty;
    }
    leftGas_to_rightDielectric
    {
        type            calculated;
        value           nonuniform List<vector> 10((1.66666 -8.06607e-10 0) (1.66666 -2.02809e-09 0) (1.66666 -2.47397e-09 0) (1.66666 -2.24487e-09 0) (1.66666 -1.53967e-09 0) (1.66666 -6.25488e-10 0) (1.66666 2.78874e-10 0) (1.66666 7.51435e-10 0) (1.66666 6.13843e-10 0) (1.66666 2.19492e-10 0));
    }
}


// ************************************************************************* //
