/*--------------------------------*- C++ -*----------------------------------*\
| =========                 |                                                 |
| \\      /  F ield         | OpenFOAM: The Open Source CFD Toolbox           |
|  \\    /   O peration     | Version:  2412                                  |
|   \\  /    A nd           | Website:  www.openfoam.com                      |
|    \\/     M anipulation  |                                                 |
\*---------------------------------------------------------------------------*/
FoamFile
{
    version     2.0;
    format      ascii;
    arch        "LSB;label=32;scalar=64";
    class       volVectorField;
    location    "1/rightDielectric";
    object      E;
}
// * * * * * * * * * * * * * * * * * * * * * * * * * * * * * * * * * * * * * //

dimensions      [1 1 -3 0 0 -1 0];

internalField   nonuniform List<vector> 
50
(
(0.0333331 -2.89903e-12 0)
(0.0333331 1.57664e-11 0)
(0.0333331 5.34821e-11 0)
(0.0333331 1.06734e-10 0)
(0.0333331 1.56241e-10 0)
(0.0333331 1.63835e-10 0)
(0.0333331 1.3253e-10 0)
(0.0333331 6.45886e-11 0)
(0.0333331 -1.03378e-11 0)
(0.0333331 -2.19073e-11 0)
(0.0333331 1.29757e-11 0)
(0.0333331 4.97137e-11 0)
(0.0333331 9.95108e-11 0)
(0.0333331 1.52549e-10 0)
(0.0333331 1.86336e-10 0)
(0.0333331 1.75984e-10 0)
(0.0333331 1.24219e-10 0)
(0.0333331 4.54411e-11 0)
(0.0333331 -2.54575e-11 0)
(0.0333331 -2.61035e-11 0)
(0.0333331 1.65965e-11 0)
(0.0333331 5.56738e-11 0)
(0.0333331 1.01256e-10 0)
(0.0333331 1.43206e-10 0)
(0.0333331 1.64477e-10 0)
(0.0333331 1.47328e-10 0)
(0.0333331 9.40579e-11 0)
(0.0333331 2.75164e-11 0)
(0.0333331 -2.26962e-11 0)
(0.0333331 -2.00335e-11 0)
(0.0333331 1.19086e-11 0)
(0.0333331 4.07756e-11 0)
(0.0333331 7.12186e-11 0)
(0.0333331 9.80043e-11 0)
(0.0333331 1.07554e-10 0)
(0.0333331 9.12592e-11 0)
(0.0333331 5.62096e-11 0)
(0.0333331 1.53436e-11 0)
(0.0333331 -1.2586e-11 0)
(0.0333331 -1.1078e-11 0)
(0.0333331 5.01487e-12 0)
(0.0333331 1.47953e-11 0)
(0.0333331 2.53426e-11 0)
(0.0333331 3.39668e-11 0)
(0.0333331 3.60054e-11 0)
(0.0333331 3.0395e-11 0)
(0.0333331 1.79531e-11 0)
(0.0333331 5.16133e-12 0)
(0.0333331 -3.49741e-12 0)
(0.0333331 -3.49982e-12 0)
)
;

boundaryField
{
    back
    {
        type            empty;
    }
    down
    {
        type            calculated;
        value           nonuniform List<vector> 5((0.0333331 -2.89903e-12 0) (0.0333331 1.29757e-11 0) (0.0333331 1.65965e-11 0) (0.0333331 1.19086e-11 0) (0.0333331 5.01487e-12 0));
    }
    up
    {
        type            calculated;
        value           nonuniform List<vector> 5((0.0333331 -2.19073e-11 0) (0.0333331 -2.61035e-11 0) (0.0333331 -2.00335e-11 0) (0.0333331 -1.1078e-11 0) (0.0333331 -3.49982e-12 0));
    }
    front
    {
        type            empty;
    }
    right
    {
        type            calculated;
        value           nonuniform List<vector> 10((0.0333331 5.01487e-12 0) (0.0333331 1.47953e-11 0) (0.0333331 2.53426e-11 0) (0.0333331 3.39668e-11 0) (0.0333331 3.60054e-11 0) (0.0333331 3.0395e-11 0) (0.0333331 1.79531e-11 0) (0.0333331 5.16133e-12 0) (0.0333331 -3.49741e-12 0) (0.0333331 -3.49982e-12 0));
    }
    rightDielectric_to_leftGas
    {
        type            calculated;
        value           nonuniform List<vector> 10((0.0333331 -2.89903e-12 0) (0.0333331 1.57664e-11 0) (0.0333331 5.34821e-11 0) (0.0333331 1.06734e-10 0) (0.0333331 1.56241e-10 0) (0.0333331 1.63835e-10 0) (0.0333331 1.3253e-10 0) (0.0333331 6.45886e-11 0) (0.0333331 -1.03378e-11 0) (0.0333331 -2.19073e-11 0));
    }
}


// ************************************************************************* //
