/*--------------------------------*- C++ -*----------------------------------*\
| =========                 |                                                 |
| \\      /  F ield         | OpenFOAM: The Open Source CFD Toolbox           |
|  \\    /   O peration     | Version:  2412                                  |
|   \\  /    A nd           | Website:  www.openfoam.com                      |
|    \\/     M anipulation  |                                                 |
\*---------------------------------------------------------------------------*/
FoamFile
{
    version     2.0;
    format      ascii;
    arch        "LSB;label=32;scalar=64";
    class       volVectorField;
    location    "5/leftGas";
    object      E;
}
// * * * * * * * * * * * * * * * * * * * * * * * * * * * * * * * * * * * * * //

dimensions      [1 1 -3 0 0 -1 0];

internalField   nonuniform List<vector> 
50
(
(-1.66533e-15 -5.55112e-16 0)
(-2.77556e-15 2.31112e-31 0)
(-1.66533e-15 1.11022e-15 0)
(-5.55112e-16 5.55112e-16 0)
(-3.34096e-51 -1.92593e-32 0)
(-5.55112e-16 6.41977e-33 0)
(-5.55112e-16 -1.11022e-15 0)
(-2.22045e-15 -1.11022e-15 0)
(-2.77556e-15 5.55112e-16 0)
(-1.66533e-15 5.55112e-16 0)
(-5.55112e-16 -5.55112e-16 0)
(3.08149e-31 5.3926e-31 0)
(-5.55112e-16 1.11022e-15 0)
(-5.55112e-16 1.11022e-15 0)
(-5.55112e-16 -1.2326e-30 0)
(-1.11022e-15 -5.55112e-16 0)
(-1.11022e-15 -5.55112e-16 0)
(-5.55112e-16 -1.11022e-15 0)
(-1.11022e-15 -3.85186e-31 0)
(-1.11022e-15 5.55112e-16 0)
(5.55112e-16 0 0)
(1.11022e-15 9.24446e-32 0)
(-1.15556e-31 5.55112e-16 0)
(1.54074e-31 5.55112e-16 0)
(-1.11022e-15 -5.55112e-16 0)
(-5.55112e-16 -5.55112e-16 0)
(-1.11022e-15 -5.55112e-16 0)
(-1.11022e-15 -1.11022e-15 0)
(-5.55112e-16 1.30963e-30 0)
(-5.55112e-16 5.55112e-16 0)
(5.55112e-16 1.54074e-31 0)
(5.55112e-16 -5.55112e-16 0)
(5.55112e-16 1.54074e-31 0)
(-7.70372e-32 3.85186e-31 0)
(-5.55112e-16 -5.55112e-16 0)
(-3.23556e-31 -5.55112e-16 0)
(-5.55112e-16 -1.11022e-15 0)
(-1.15556e-30 -5.55112e-16 0)
(5.55112e-16 5.55112e-16 0)
(-1.02716e-31 5.55112e-16 0)
(3.34096e-51 0 0)
(-3.85186e-32 5.13581e-32 0)
(5.55112e-16 5.13581e-32 0)
(0 -5.55112e-16 0)
(1.38667e-31 -5.55112e-16 0)
(3.08149e-31 -5.55112e-16 0)
(4.62223e-31 -5.55112e-16 0)
(5.55112e-16 1.02716e-31 0)
(5.55112e-16 5.13581e-32 0)
(1.02716e-31 -5.13581e-32 0)
)
;

boundaryField
{
    back
    {
        type            empty;
    }
    down
    {
        type            calculated;
        value           nonuniform List<vector> 5((-1.66533e-15 -5.55112e-16 0) (-5.55112e-16 -5.55112e-16 0) (5.55112e-16 0 0) (5.55112e-16 1.54074e-31 0) (3.34096e-51 0 0));
    }
    up
    {
        type            calculated;
        value           nonuniform List<vector> 5((-1.66533e-15 5.55112e-16 0) (-1.11022e-15 5.55112e-16 0) (-5.55112e-16 5.55112e-16 0) (-1.02716e-31 5.55112e-16 0) (1.02716e-31 -5.13581e-32 0));
    }
    left
    {
        type            calculated;
        value           nonuniform List<vector> 10((-1.66533e-15 -5.55112e-16 0) (-2.77556e-15 2.31112e-31 0) (-1.66533e-15 1.11022e-15 0) (-5.55112e-16 5.55112e-16 0) (-3.34096e-51 -1.92593e-32 0) (-5.55112e-16 6.41977e-33 0) (-5.55112e-16 -1.11022e-15 0) (-2.22045e-15 -1.11022e-15 0) (-2.77556e-15 5.55112e-16 0) (-1.66533e-15 5.55112e-16 0));
    }
    front
    {
        type            empty;
    }
    leftGas_to_rightDielectric
    {
        type            calculated;
        value           nonuniform List<vector> 10((3.34096e-51 0 0) (-3.85186e-32 5.13581e-32 0) (5.55112e-16 5.13581e-32 0) (0 -5.55112e-16 0) (1.38667e-31 -5.55112e-16 0) (3.08149e-31 -5.55112e-16 0) (4.62223e-31 -5.55112e-16 0) (5.55112e-16 1.02716e-31 0) (5.55112e-16 5.13581e-32 0) (1.02716e-31 -5.13581e-32 0));
    }
}


// ************************************************************************* //
