/*--------------------------------*- C++ -*----------------------------------*\
| =========                 |                                                 |
| \\      /  F ield         | OpenFOAM: The Open Source CFD Toolbox           |
|  \\    /   O peration     | Version:  2412                                  |
|   \\  /    A nd           | Website:  www.openfoam.com                      |
|    \\/     M anipulation  |                                                 |
\*---------------------------------------------------------------------------*/
FoamFile
{
    version     2.0;
    format      ascii;
    arch        "LSB;label=32;scalar=64";
    class       volScalarField;
    location    "5/leftGas";
    object      reducedE;
}
// * * * * * * * * * * * * * * * * * * * * * * * * * * * * * * * * * * * * * //

dimensions      [1 4 -3 0 0 -1 0];

internalField   nonuniform List<scalar> 
50
(
7.02167e-41
1.11022e-40
8.00593e-41
3.14018e-41
7.70372e-58
2.22045e-41
4.96507e-41
9.93014e-41
1.13221e-40
7.02167e-41
3.14018e-41
2.48437e-56
4.96507e-41
4.96507e-41
2.22045e-41
4.96507e-41
4.96507e-41
4.96507e-41
4.44089e-41
4.96507e-41
2.22045e-41
4.44089e-41
2.22045e-41
2.22045e-41
4.96507e-41
3.14018e-41
4.96507e-41
6.28037e-41
2.22045e-41
3.14018e-41
2.22045e-41
3.14018e-41
2.22045e-41
1.57126e-56
3.14018e-41
2.22045e-41
4.96507e-41
2.22045e-41
3.14018e-41
2.22045e-41
1.33638e-76
2.56791e-57
2.22045e-41
2.22045e-41
2.22045e-41
2.22045e-41
2.22045e-41
2.22045e-41
2.22045e-41
4.59361e-57
)
;

boundaryField
{
    back
    {
        type            empty;
    }
    down
    {
        type            calculated;
        value           nonuniform List<scalar> 5(7.02167e-41 3.14018e-41 2.22045e-41 2.22045e-41 1.33638e-76);
    }
    up
    {
        type            calculated;
        value           nonuniform List<scalar> 5(7.02167e-41 4.96507e-41 3.14018e-41 2.22045e-41 4.59361e-57);
    }
    left
    {
        type            calculated;
        value           nonuniform List<scalar> 10(7.02167e-41 1.11022e-40 8.00593e-41 3.14018e-41 7.70372e-58 2.22045e-41 4.96507e-41 9.93014e-41 1.13221e-40 7.02167e-41);
    }
    front
    {
        type            empty;
    }
    leftGas_to_rightDielectric
    {
        type            calculated;
        value           nonuniform List<scalar> 10(1.33638e-76 2.56791e-57 2.22045e-41 2.22045e-41 2.22045e-41 2.22045e-41 2.22045e-41 2.22045e-41 2.22045e-41 4.59361e-57);
    }
}


// ************************************************************************* //
