/*--------------------------------*- C++ -*----------------------------------*\
| =========                 |                                                 |
| \\      /  F ield         | OpenFOAM: The Open Source CFD Toolbox           |
|  \\    /   O peration     | Version:  2412                                  |
|   \\  /    A nd           | Website:  www.openfoam.com                      |
|    \\/     M anipulation  |                                                 |
\*---------------------------------------------------------------------------*/
FoamFile
{
    version     2.0;
    format      ascii;
    arch        "LSB;label=32;scalar=64";
    class       volVectorField;
    location    "1/leftGas";
    object      E;
}
// * * * * * * * * * * * * * * * * * * * * * * * * * * * * * * * * * * * * * //

dimensions      [1 1 -3 0 0 -1 0];

internalField   nonuniform List<vector> 
50
(
(0.166667 -1.27394e-10 0)
(0.166667 -3.12466e-10 0)
(0.166667 -3.98616e-10 0)
(0.166667 -3.79179e-10 0)
(0.166667 -2.77813e-10 0)
(0.166667 -1.51293e-10 0)
(0.166667 1.53728e-11 0)
(0.166667 1.37317e-10 0)
(0.166667 1.44871e-10 0)
(0.166667 6.20403e-11 0)
(0.166667 -2.72526e-10 0)
(0.166667 -6.98593e-10 0)
(0.166667 -8.85579e-10 0)
(0.166667 -8.30103e-10 0)
(0.166667 -6.07147e-10 0)
(0.166667 -2.96696e-10 0)
(0.166667 4.4779e-11 0)
(0.166667 2.94647e-10 0)
(0.166667 3.1469e-10 0)
(0.166667 1.24961e-10 0)
(0.166667 -3.05971e-10 0)
(0.166667 -7.71035e-10 0)
(0.166667 -9.64679e-10 0)
(0.166667 -8.88496e-10 0)
(0.166667 -6.42331e-10 0)
(0.166667 -3.01582e-10 0)
(0.166667 7.62743e-11 0)
(0.166667 3.30631e-10 0)
(0.166667 3.26091e-10 0)
(0.166667 1.19868e-10 0)
(0.166667 -2.09484e-10 0)
(0.166667 -5.59352e-10 0)
(0.166667 -6.90512e-10 0)
(0.166667 -6.24017e-10 0)
(0.166667 -4.42586e-10 0)
(0.166667 -1.83566e-10 0)
(0.166667 8.1229e-11 0)
(0.166667 2.49612e-10 0)
(0.166667 2.22483e-10 0)
(0.166667 7.8453e-11 0)
(0.166666 -8.38374e-11 0)
(0.166666 -2.04954e-10 0)
(0.166666 -2.38279e-10 0)
(0.166666 -2.01709e-10 0)
(0.166666 -1.19804e-10 0)
(0.166666 -2.18585e-11 0)
(0.166666 7.28179e-11 0)
(0.166666 1.14961e-10 0)
(0.166666 8.44051e-11 0)
(0.166666 2.8863e-11 0)
)
;

boundaryField
{
    back
    {
        type            empty;
    }
    down
    {
        type            calculated;
        value           nonuniform List<vector> 5((0.166667 -1.27394e-10 0) (0.166667 -2.72526e-10 0) (0.166667 -3.05971e-10 0) (0.166667 -2.09484e-10 0) (0.166666 -8.38374e-11 0));
    }
    up
    {
        type            calculated;
        value           nonuniform List<vector> 5((0.166667 6.20403e-11 0) (0.166667 1.24961e-10 0) (0.166667 1.19868e-10 0) (0.166667 7.8453e-11 0) (0.166666 2.8863e-11 0));
    }
    left
    {
        type            calculated;
        value           nonuniform List<vector> 10((0.166667 -1.27394e-10 0) (0.166667 -3.12466e-10 0) (0.166667 -3.98616e-10 0) (0.166667 -3.79179e-10 0) (0.166667 -2.77813e-10 0) (0.166667 -1.51293e-10 0) (0.166667 1.53728e-11 0) (0.166667 1.37317e-10 0) (0.166667 1.44871e-10 0) (0.166667 6.20403e-11 0));
    }
    front
    {
        type            empty;
    }
    leftGas_to_rightDielectric
    {
        type            calculated;
        value           nonuniform List<vector> 10((0.166666 -8.38374e-11 0) (0.166666 -2.04954e-10 0) (0.166666 -2.38279e-10 0) (0.166666 -2.01709e-10 0) (0.166666 -1.19804e-10 0) (0.166666 -2.18585e-11 0) (0.166666 7.28179e-11 0) (0.166666 1.14961e-10 0) (0.166666 8.44051e-11 0) (0.166666 2.8863e-11 0));
    }
}


// ************************************************************************* //
