/*--------------------------------*- C++ -*----------------------------------*\
| =========                 |                                                 |
| \\      /  F ield         | OpenFOAM: The Open Source CFD Toolbox           |
|  \\    /   O peration     | Version:  2412                                  |
|   \\  /    A nd           | Website:  www.openfoam.com                      |
|    \\/     M anipulation  |                                                 |
\*---------------------------------------------------------------------------*/
FoamFile
{
    version     2.0;
    format      ascii;
    arch        "LSB;label=32;scalar=64";
    class       volVectorField;
    location    "4/leftGas";
    object      E;
}
// * * * * * * * * * * * * * * * * * * * * * * * * * * * * * * * * * * * * * //

dimensions      [1 1 -3 0 0 -1 0];

internalField   nonuniform List<vector> 
50
(
(-5.55112e-16 -2.77556e-16 0)
(-8.32667e-16 -2.77556e-16 0)
(-2.77556e-16 2.77556e-16 0)
(5.55112e-16 5.55112e-16 0)
(1.11022e-15 2.77556e-16 0)
(1.38778e-15 -3.20988e-33 0)
(1.38778e-15 -2.77556e-16 0)
(1.11022e-15 -2.77556e-16 0)
(8.32667e-16 2.77556e-16 0)
(1.38778e-15 2.77556e-16 0)
(-5.55112e-16 2.73758e-47 0)
(5.55112e-16 5.55112e-16 0)
(8.32667e-16 1.11022e-15 0)
(1.11022e-15 8.32667e-16 0)
(1.11022e-15 5.55112e-16 0)
(1.38778e-15 2.77556e-16 0)
(1.38778e-15 -1.92593e-31 0)
(1.66533e-15 -2.77556e-16 0)
(1.94289e-15 -5.00742e-31 0)
(1.38778e-15 2.77556e-16 0)
(5.55112e-16 8.32667e-16 0)
(1.38778e-15 1.11022e-15 0)
(1.11022e-15 8.32667e-16 0)
(8.32667e-16 8.32667e-16 0)
(5.55112e-16 5.55112e-16 0)
(2.77556e-16 2.77556e-16 0)
(5.55112e-16 2.31112e-31 0)
(1.11022e-15 2.77556e-16 0)
(1.66533e-15 -3.85186e-31 0)
(1.38778e-15 -2.77556e-16 0)
(8.32667e-16 8.32667e-16 0)
(5.55112e-16 1.11022e-15 0)
(5.55112e-16 5.55112e-16 0)
(5.55112e-16 2.77556e-16 0)
(2.77556e-16 -1.92593e-31 0)
(-2.31112e-31 2.77556e-16 0)
(-1.54074e-31 8.32667e-16 0)
(5.55112e-16 8.32667e-16 0)
(8.32667e-16 2.77556e-16 0)
(1.11022e-15 2.6963e-31 0)
(2.77556e-16 5.55112e-16 0)
(1.34815e-31 8.32667e-16 0)
(3.04297e-31 8.32667e-16 0)
(2.77556e-16 5.55112e-16 0)
(2.77556e-16 -1.02716e-31 0)
(2.77556e-16 -7.70372e-32 0)
(-3.85186e-31 5.55112e-16 0)
(-1.61778e-30 1.11022e-15 0)
(2.77556e-16 5.55112e-16 0)
(2.77556e-16 -5.13581e-32 0)
)
;

boundaryField
{
    back
    {
        type            empty;
    }
    down
    {
        type            calculated;
        value           nonuniform List<vector> 5((-5.55112e-16 -2.77556e-16 0) (-5.55112e-16 2.73758e-47 0) (5.55112e-16 8.32667e-16 0) (8.32667e-16 8.32667e-16 0) (2.77556e-16 5.55112e-16 0));
    }
    up
    {
        type            calculated;
        value           nonuniform List<vector> 5((1.38778e-15 2.77556e-16 0) (1.38778e-15 2.77556e-16 0) (1.38778e-15 -2.77556e-16 0) (1.11022e-15 2.6963e-31 0) (2.77556e-16 -5.13581e-32 0));
    }
    left
    {
        type            calculated;
        value           nonuniform List<vector> 10((-5.55112e-16 -2.77556e-16 0) (-8.32667e-16 -2.77556e-16 0) (-2.77556e-16 2.77556e-16 0) (5.55112e-16 5.55112e-16 0) (1.11022e-15 2.77556e-16 0) (1.38778e-15 -3.20988e-33 0) (1.38778e-15 -2.77556e-16 0) (1.11022e-15 -2.77556e-16 0) (8.32667e-16 2.77556e-16 0) (1.38778e-15 2.77556e-16 0));
    }
    front
    {
        type            empty;
    }
    leftGas_to_rightDielectric
    {
        type            calculated;
        value           nonuniform List<vector> 10((2.77556e-16 5.55112e-16 0) (1.34815e-31 8.32667e-16 0) (3.04297e-31 8.32667e-16 0) (2.77556e-16 5.55112e-16 0) (2.77556e-16 -1.02716e-31 0) (2.77556e-16 -7.70372e-32 0) (-3.85186e-31 5.55112e-16 0) (-1.61778e-30 1.11022e-15 0) (2.77556e-16 5.55112e-16 0) (2.77556e-16 -5.13581e-32 0));
    }
}


// ************************************************************************* //
