/*--------------------------------*- C++ -*----------------------------------*\
| =========                 |                                                 |
| \\      /  F ield         | OpenFOAM: The Open Source CFD Toolbox           |
|  \\    /   O peration     | Version:  2412                                  |
|   \\  /    A nd           | Website:  www.openfoam.com                      |
|    \\/     M anipulation  |                                                 |
\*---------------------------------------------------------------------------*/
FoamFile
{
    version     2.0;
    format      ascii;
    arch        "LSB;label=32;scalar=64";
    class       volVectorField;
    location    "9/rightDielectric";
    object      E;
}
// * * * * * * * * * * * * * * * * * * * * * * * * * * * * * * * * * * * * * //

dimensions      [1 1 -3 0 0 -1 0];

internalField   nonuniform List<vector> 
50
(
(0.299999 -2.09696e-11 0)
(0.299999 1.02163e-10 0)
(0.299999 3.5424e-10 0)
(0.299999 7.11818e-10 0)
(0.299999 1.04504e-09 0)
(0.299999 1.09661e-09 0)
(0.299999 8.86707e-10 0)
(0.299999 4.30374e-10 0)
(0.299999 -7.27274e-11 0)
(0.299999 -1.48679e-10 0)
(0.299999 8.64907e-11 0)
(0.299999 3.32293e-10 0)
(0.299999 6.66461e-10 0)
(0.299999 1.02298e-09 0)
(0.299999 1.25034e-09 0)
(0.299999 1.18079e-09 0)
(0.299999 8.32613e-10 0)
(0.299999 3.02753e-10 0)
(0.299999 -1.7376e-10 0)
(0.299999 -1.76669e-10 0)
(0.299999 1.1124e-10 0)
(0.299999 3.73455e-10 0)
(0.299999 6.79728e-10 0)
(0.299999 9.61837e-10 0)
(0.299999 1.10494e-09 0)
(0.299999 9.89481e-10 0)
(0.299999 6.30897e-10 0)
(0.299999 1.83125e-10 0)
(0.299999 -1.54422e-10 0)
(0.299999 -1.35514e-10 0)
(0.299999 7.99182e-11 0)
(0.299999 2.73829e-10 0)
(0.299999 4.78478e-10 0)
(0.299999 6.58651e-10 0)
(0.299999 7.22863e-10 0)
(0.299999 6.13099e-10 0)
(0.299999 3.77118e-10 0)
(0.299999 1.02086e-10 0)
(0.299999 -8.56583e-11 0)
(0.299999 -7.49454e-11 0)
(0.299999 3.36887e-11 0)
(0.299999 9.93992e-11 0)
(0.299999 1.70315e-10 0)
(0.299999 2.28324e-10 0)
(0.299999 2.42015e-10 0)
(0.299999 2.04219e-10 0)
(0.299999 1.20442e-10 0)
(0.299999 3.43554e-11 0)
(0.299999 -2.38423e-11 0)
(0.299999 -2.36799e-11 0)
)
;

boundaryField
{
    back
    {
        type            empty;
    }
    down
    {
        type            calculated;
        value           nonuniform List<vector> 5((0.299999 -2.09696e-11 0) (0.299999 8.64907e-11 0) (0.299999 1.1124e-10 0) (0.299999 7.99182e-11 0) (0.299999 3.36887e-11 0));
    }
    up
    {
        type            calculated;
        value           nonuniform List<vector> 5((0.299999 -1.48679e-10 0) (0.299999 -1.76669e-10 0) (0.299999 -1.35514e-10 0) (0.299999 -7.49454e-11 0) (0.299999 -2.36799e-11 0));
    }
    front
    {
        type            empty;
    }
    right
    {
        type            calculated;
        value           nonuniform List<vector> 10((0.299999 3.36887e-11 0) (0.299999 9.93992e-11 0) (0.299999 1.70315e-10 0) (0.299999 2.28324e-10 0) (0.299999 2.42015e-10 0) (0.299999 2.04219e-10 0) (0.299999 1.20442e-10 0) (0.299999 3.43554e-11 0) (0.299999 -2.38423e-11 0) (0.299999 -2.36799e-11 0));
    }
    rightDielectric_to_leftGas
    {
        type            calculated;
        value           nonuniform List<vector> 10((0.299999 -2.09696e-11 0) (0.299999 1.02163e-10 0) (0.299999 3.5424e-10 0) (0.299999 7.11818e-10 0) (0.299999 1.04504e-09 0) (0.299999 1.09661e-09 0) (0.299999 8.86707e-10 0) (0.299999 4.30374e-10 0) (0.299999 -7.27274e-11 0) (0.299999 -1.48679e-10 0));
    }
}


// ************************************************************************* //
