/*--------------------------------*- C++ -*----------------------------------*\
| =========                 |                                                 |
| \\      /  F ield         | OpenFOAM: The Open Source CFD Toolbox           |
|  \\    /   O peration     | Version:  2412                                  |
|   \\  /    A nd           | Website:  www.openfoam.com                      |
|    \\/     M anipulation  |                                                 |
\*---------------------------------------------------------------------------*/
FoamFile
{
    version     2.0;
    format      ascii;
    arch        "LSB;label=32;scalar=64";
    class       volVectorField;
    location    "6/leftGas";
    object      E;
}
// * * * * * * * * * * * * * * * * * * * * * * * * * * * * * * * * * * * * * //

dimensions      [1 1 -3 0 0 -1 0];

internalField   nonuniform List<vector> 
50
(
(1.11022e-15 -5.55112e-16 0)
(5.55112e-16 -5.55112e-16 0)
(-1.28507e-46 -1.28395e-32 0)
(5.55112e-16 5.55112e-16 0)
(1.66533e-15 -8.47409e-31 0)
(5.55112e-16 -5.55112e-16 0)
(-5.55112e-16 -1.11022e-15 0)
(-1.66533e-15 -5.55112e-16 0)
(-1.11022e-15 5.55112e-16 0)
(-5.55112e-16 0 0)
(-1.28395e-32 -7.70372e-32 0)
(1.11022e-15 -5.55112e-16 0)
(5.55112e-16 -7.70372e-31 0)
(1.11022e-15 1.11022e-15 0)
(5.55112e-16 -6.93335e-31 0)
(5.55112e-16 -1.66533e-15 0)
(6.16298e-31 -1.11022e-15 0)
(5.55112e-16 7.70372e-32 0)
(5.55112e-16 5.55112e-16 0)
(1.11022e-15 5.55112e-16 0)
(1.66533e-15 5.55112e-16 0)
(1.66533e-15 -3.85186e-31 0)
(1.66533e-15 -2.31112e-31 0)
(1.11022e-15 5.55112e-16 0)
(5.55112e-16 -5.55112e-16 0)
(5.55112e-16 -1.11022e-15 0)
(1.11022e-15 -1.11022e-15 0)
(1.11022e-15 1.15556e-30 0)
(1.11022e-15 1.11022e-15 0)
(1.66533e-15 5.55112e-16 0)
(2.77556e-15 6.16298e-31 0)
(1.66533e-15 -5.55112e-16 0)
(1.66533e-15 -5.55112e-16 0)
(1.11022e-15 3.08149e-31 0)
(5.55112e-16 -5.55112e-16 0)
(5.55112e-16 -1.11022e-15 0)
(1.11022e-15 -5.55112e-16 0)
(1.66533e-15 8.89496e-46 0)
(1.11022e-15 1.11022e-15 0)
(5.55112e-16 1.11022e-15 0)
(1.11022e-15 -5.55112e-16 0)
(5.55112e-16 -1.11022e-15 0)
(5.55112e-16 -5.55112e-16 0)
(5.55112e-16 -5.55112e-16 0)
(2.46519e-31 -1.11022e-15 0)
(4.62223e-31 -5.55112e-16 0)
(5.55112e-16 5.13581e-32 0)
(5.55112e-16 1.02716e-31 0)
(5.55112e-16 1.02716e-31 0)
(-5.55112e-16 -1.64215e-46 0)
)
;

boundaryField
{
    back
    {
        type            empty;
    }
    down
    {
        type            calculated;
        value           nonuniform List<vector> 5((1.11022e-15 -5.55112e-16 0) (-1.28395e-32 -7.70372e-32 0) (1.66533e-15 5.55112e-16 0) (2.77556e-15 6.16298e-31 0) (1.11022e-15 -5.55112e-16 0));
    }
    up
    {
        type            calculated;
        value           nonuniform List<vector> 5((-5.55112e-16 0 0) (1.11022e-15 5.55112e-16 0) (1.66533e-15 5.55112e-16 0) (5.55112e-16 1.11022e-15 0) (-5.55112e-16 -1.64215e-46 0));
    }
    left
    {
        type            calculated;
        value           nonuniform List<vector> 10((1.11022e-15 -5.55112e-16 0) (5.55112e-16 -5.55112e-16 0) (-1.28507e-46 -1.28395e-32 0) (5.55112e-16 5.55112e-16 0) (1.66533e-15 -8.47409e-31 0) (5.55112e-16 -5.55112e-16 0) (-5.55112e-16 -1.11022e-15 0) (-1.66533e-15 -5.55112e-16 0) (-1.11022e-15 5.55112e-16 0) (-5.55112e-16 0 0));
    }
    front
    {
        type            empty;
    }
    leftGas_to_rightDielectric
    {
        type            calculated;
        value           nonuniform List<vector> 10((1.11022e-15 -5.55112e-16 0) (5.55112e-16 -1.11022e-15 0) (5.55112e-16 -5.55112e-16 0) (5.55112e-16 -5.55112e-16 0) (2.46519e-31 -1.11022e-15 0) (4.62223e-31 -5.55112e-16 0) (5.55112e-16 5.13581e-32 0) (5.55112e-16 1.02716e-31 0) (5.55112e-16 1.02716e-31 0) (-5.55112e-16 -1.64215e-46 0));
    }
}


// ************************************************************************* //
