/*--------------------------------*- C++ -*----------------------------------*\
| =========                 |                                                 |
| \\      /  F ield         | OpenFOAM: The Open Source CFD Toolbox           |
|  \\    /   O peration     | Version:  2412                                  |
|   \\  /    A nd           | Website:  www.openfoam.com                      |
|    \\/     M anipulation  |                                                 |
\*---------------------------------------------------------------------------*/
FoamFile
{
    version     2.0;
    format      ascii;
    arch        "LSB;label=32;scalar=64";
    class       volScalarField;
    location    "6/leftGas";
    object      reducedE;
}
// * * * * * * * * * * * * * * * * * * * * * * * * * * * * * * * * * * * * * //

dimensions      [1 4 -3 0 0 -1 0];

internalField   nonuniform List<scalar> 
50
(
4.96507e-41
3.14018e-41
5.13581e-58
3.14018e-41
6.66134e-41
3.14018e-41
4.96507e-41
7.02167e-41
4.96507e-41
2.22045e-41
3.12399e-57
4.96507e-41
2.22045e-41
6.28037e-41
2.22045e-41
7.02167e-41
4.44089e-41
2.22045e-41
3.14018e-41
4.96507e-41
7.02167e-41
6.66134e-41
6.66134e-41
4.96507e-41
3.14018e-41
4.96507e-41
6.28037e-41
4.44089e-41
6.28037e-41
7.02167e-41
1.11022e-40
7.02167e-41
7.02167e-41
4.44089e-41
3.14018e-41
4.96507e-41
4.96507e-41
6.66134e-41
6.28037e-41
4.96507e-41
4.96507e-41
4.96507e-41
3.14018e-41
3.14018e-41
4.44089e-41
2.22045e-41
2.22045e-41
2.22045e-41
2.22045e-41
2.22045e-41
)
;

boundaryField
{
    back
    {
        type            empty;
    }
    down
    {
        type            calculated;
        value           nonuniform List<scalar> 5(4.96507e-41 3.12399e-57 7.02167e-41 1.11022e-40 4.96507e-41);
    }
    up
    {
        type            calculated;
        value           nonuniform List<scalar> 5(2.22045e-41 4.96507e-41 7.02167e-41 4.96507e-41 2.22045e-41);
    }
    left
    {
        type            calculated;
        value           nonuniform List<scalar> 10(4.96507e-41 3.14018e-41 5.13581e-58 3.14018e-41 6.66134e-41 3.14018e-41 4.96507e-41 7.02167e-41 4.96507e-41 2.22045e-41);
    }
    front
    {
        type            empty;
    }
    leftGas_to_rightDielectric
    {
        type            calculated;
        value           nonuniform List<scalar> 10(4.96507e-41 4.96507e-41 3.14018e-41 3.14018e-41 4.44089e-41 2.22045e-41 2.22045e-41 2.22045e-41 2.22045e-41 2.22045e-41);
    }
}


// ************************************************************************* //
