/*--------------------------------*- C++ -*----------------------------------*\
| =========                 |                                                 |
| \\      /  F ield         | OpenFOAM: The Open Source CFD Toolbox           |
|  \\    /   O peration     | Version:  2412                                  |
|   \\  /    A nd           | Website:  www.openfoam.com                      |
|    \\/     M anipulation  |                                                 |
\*---------------------------------------------------------------------------*/
FoamFile
{
    version     2.0;
    format      ascii;
    arch        "LSB;label=32;scalar=64";
    class       volVectorField;
    location    "6/rightDielectric";
    object      E;
}
// * * * * * * * * * * * * * * * * * * * * * * * * * * * * * * * * * * * * * //

dimensions      [1 1 -3 0 0 -1 0];

internalField   nonuniform List<vector> 
50
(
(0.199999 -5.4443e-11 0)
(0.199999 -6.49307e-11 0)
(0.199999 2.09971e-11 0)
(0.199999 1.97409e-10 0)
(0.199999 3.92052e-10 0)
(0.199999 4.58047e-10 0)
(0.199999 3.91825e-10 0)
(0.199999 1.88083e-10 0)
(0.199999 -5.42787e-11 0)
(0.199999 -8.24567e-11 0)
(0.199999 1.90734e-11 0)
(0.199999 1.01816e-10 0)
(0.199999 2.47211e-10 0)
(0.199999 4.24754e-10 0)
(0.199999 5.5291e-10 0)
(0.199999 5.3717e-10 0)
(0.199999 3.79329e-10 0)
(0.199999 1.23395e-10 0)
(0.199999 -1.10241e-10 0)
(0.199999 -9.88519e-11 0)
(0.199999 4.2868e-11 0)
(0.199999 1.52962e-10 0)
(0.199999 2.95232e-10 0)
(0.199999 4.36318e-10 0)
(0.199999 5.15007e-10 0)
(0.199999 4.65082e-10 0)
(0.199999 2.90492e-10 0)
(0.199999 6.87437e-11 0)
(0.199999 -9.69495e-11 0)
(0.199999 -7.64556e-11 0)
(0.199999 3.3762e-11 0)
(0.199999 1.20983e-10 0)
(0.199999 2.18379e-10 0)
(0.199999 3.08782e-10 0)
(0.199999 3.43672e-10 0)
(0.199999 2.90981e-10 0)
(0.199999 1.73928e-10 0)
(0.199999 3.66882e-11 0)
(0.199999 -5.50821e-11 0)
(0.199999 -4.27767e-11 0)
(0.199999 1.51462e-11 0)
(0.199999 4.50697e-11 0)
(0.199999 7.91213e-11 0)
(0.199999 1.08173e-10 0)
(0.199999 1.15594e-10 0)
(0.199999 9.71937e-11 0)
(0.199999 5.52722e-11 0)
(0.199999 1.23562e-11 0)
(0.199999 -1.59482e-11 0)
(0.199999 -1.36063e-11 0)
)
;

boundaryField
{
    back
    {
        type            empty;
    }
    down
    {
        type            calculated;
        value           nonuniform List<vector> 5((0.199999 -5.4443e-11 0) (0.199999 1.90734e-11 0) (0.199999 4.2868e-11 0) (0.199999 3.3762e-11 0) (0.199999 1.51462e-11 0));
    }
    up
    {
        type            calculated;
        value           nonuniform List<vector> 5((0.199999 -8.24567e-11 0) (0.199999 -9.88519e-11 0) (0.199999 -7.64556e-11 0) (0.199999 -4.27767e-11 0) (0.199999 -1.36063e-11 0));
    }
    front
    {
        type            empty;
    }
    right
    {
        type            calculated;
        value           nonuniform List<vector> 10((0.199999 1.51462e-11 0) (0.199999 4.50697e-11 0) (0.199999 7.91213e-11 0) (0.199999 1.08173e-10 0) (0.199999 1.15594e-10 0) (0.199999 9.71937e-11 0) (0.199999 5.52722e-11 0) (0.199999 1.23562e-11 0) (0.199999 -1.59482e-11 0) (0.199999 -1.36063e-11 0));
    }
    rightDielectric_to_leftGas
    {
        type            calculated;
        value           nonuniform List<vector> 10((0.199999 -5.4443e-11 0) (0.199999 -6.49307e-11 0) (0.199999 2.09971e-11 0) (0.199999 1.97409e-10 0) (0.199999 3.92052e-10 0) (0.199999 4.58047e-10 0) (0.199999 3.91825e-10 0) (0.199999 1.88083e-10 0) (0.199999 -5.42787e-11 0) (0.199999 -8.24567e-11 0));
    }
}


// ************************************************************************* //
