/*--------------------------------*- C++ -*----------------------------------*\
| =========                 |                                                 |
| \\      /  F ield         | OpenFOAM: The Open Source CFD Toolbox           |
|  \\    /   O peration     | Version:  2412                                  |
|   \\  /    A nd           | Website:  www.openfoam.com                      |
|    \\/     M anipulation  |                                                 |
\*---------------------------------------------------------------------------*/
FoamFile
{
    version     2.0;
    format      ascii;
    arch        "LSB;label=32;scalar=64";
    class       volVectorField;
    location    "5/rightDielectric";
    object      E;
}
// * * * * * * * * * * * * * * * * * * * * * * * * * * * * * * * * * * * * * //

dimensions      [1 1 -3 0 0 -1 0];

internalField   nonuniform List<vector> 
50
(
(0.166666 -5.4429e-11 0)
(0.166666 -6.48902e-11 0)
(0.166666 2.10599e-11 0)
(0.166666 1.97488e-10 0)
(0.166666 3.92139e-10 0)
(0.166666 4.58133e-10 0)
(0.166666 3.91902e-10 0)
(0.166666 1.88144e-10 0)
(0.166666 -5.42398e-11 0)
(0.166666 -8.24432e-11 0)
(0.166666 1.9083e-11 0)
(0.166666 1.01844e-10 0)
(0.166666 2.47255e-10 0)
(0.166666 4.24808e-10 0)
(0.166666 5.5297e-10 0)
(0.166666 5.3723e-10 0)
(0.166666 3.79383e-10 0)
(0.166666 1.23438e-10 0)
(0.166666 -1.10214e-10 0)
(0.166666 -9.88425e-11 0)
(0.166666 4.28743e-11 0)
(0.166666 1.5298e-10 0)
(0.166666 2.9526e-10 0)
(0.166666 4.36353e-10 0)
(0.166666 5.15046e-10 0)
(0.166666 4.65121e-10 0)
(0.166666 2.90527e-10 0)
(0.166666 6.87713e-11 0)
(0.166666 -9.69318e-11 0)
(0.166666 -7.64495e-11 0)
(0.166666 3.37655e-11 0)
(0.166666 1.20994e-10 0)
(0.166666 2.18395e-10 0)
(0.166666 3.08802e-10 0)
(0.166666 3.43694e-10 0)
(0.166666 2.91003e-10 0)
(0.166666 1.73948e-10 0)
(0.166666 3.67038e-11 0)
(0.166666 -5.50721e-11 0)
(0.166666 -4.27733e-11 0)
(0.166666 1.51474e-11 0)
(0.166666 4.5073e-11 0)
(0.166666 7.91264e-11 0)
(0.166666 1.08179e-10 0)
(0.166666 1.15601e-10 0)
(0.166666 9.72008e-11 0)
(0.166666 5.52786e-11 0)
(0.166666 1.23612e-11 0)
(0.166666 -1.59449e-11 0)
(0.166666 -1.36052e-11 0)
)
;

boundaryField
{
    back
    {
        type            empty;
    }
    down
    {
        type            calculated;
        value           nonuniform List<vector> 5((0.166666 -5.4429e-11 0) (0.166666 1.9083e-11 0) (0.166666 4.28743e-11 0) (0.166666 3.37655e-11 0) (0.166666 1.51474e-11 0));
    }
    up
    {
        type            calculated;
        value           nonuniform List<vector> 5((0.166666 -8.24432e-11 0) (0.166666 -9.88425e-11 0) (0.166666 -7.64495e-11 0) (0.166666 -4.27733e-11 0) (0.166666 -1.36052e-11 0));
    }
    front
    {
        type            empty;
    }
    right
    {
        type            calculated;
        value           nonuniform List<vector> 10((0.166666 1.51474e-11 0) (0.166666 4.5073e-11 0) (0.166666 7.91264e-11 0) (0.166666 1.08179e-10 0) (0.166666 1.15601e-10 0) (0.166666 9.72008e-11 0) (0.166666 5.52786e-11 0) (0.166666 1.23612e-11 0) (0.166666 -1.59449e-11 0) (0.166666 -1.36052e-11 0));
    }
    rightDielectric_to_leftGas
    {
        type            calculated;
        value           nonuniform List<vector> 10((0.166666 -5.4429e-11 0) (0.166666 -6.48902e-11 0) (0.166666 2.10599e-11 0) (0.166666 1.97488e-10 0) (0.166666 3.92139e-10 0) (0.166666 4.58133e-10 0) (0.166666 3.91902e-10 0) (0.166666 1.88144e-10 0) (0.166666 -5.42398e-11 0) (0.166666 -8.24432e-11 0));
    }
}


// ************************************************************************* //
