/*--------------------------------*- C++ -*----------------------------------*\
| =========                 |                                                 |
| \\      /  F ield         | OpenFOAM: The Open Source CFD Toolbox           |
|  \\    /   O peration     | Version:  2412                                  |
|   \\  /    A nd           | Website:  www.openfoam.com                      |
|    \\/     M anipulation  |                                                 |
\*---------------------------------------------------------------------------*/
FoamFile
{
    version     2.0;
    format      ascii;
    arch        "LSB;label=32;scalar=64";
    class       volVectorField;
    location    "3/rightDielectric";
    object      E;
}
// * * * * * * * * * * * * * * * * * * * * * * * * * * * * * * * * * * * * * //

dimensions      [1 1 -3 0 0 -1 0];

internalField   nonuniform List<vector> 
50
(
(0.0999996 -2.88225e-11 0)
(0.0999996 -3.43747e-11 0)
(0.0999996 1.11161e-11 0)
(0.0999996 1.0451e-10 0)
(0.0999996 2.07555e-10 0)
(0.0999996 2.42493e-10 0)
(0.0999996 2.07435e-10 0)
(0.0999996 9.95724e-11 0)
(0.0999996 -2.87356e-11 0)
(0.0999996 -4.36531e-11 0)
(0.0999996 1.00976e-11 0)
(0.0999996 5.39022e-11 0)
(0.0999996 1.30875e-10 0)
(0.0999996 2.24868e-10 0)
(0.0999996 2.92714e-10 0)
(0.0999996 2.84382e-10 0)
(0.0999996 2.0082e-10 0)
(0.0999996 6.53263e-11 0)
(0.0999996 -5.83622e-11 0)
(0.0999996 -5.23328e-11 0)
(0.0999996 2.26946e-11 0)
(0.0999996 8.09789e-11 0)
(0.0999996 1.56298e-10 0)
(0.0999996 2.3099e-10 0)
(0.0999996 2.72648e-10 0)
(0.0999996 2.46217e-10 0)
(0.0999996 1.53789e-10 0)
(0.0999996 3.63934e-11 0)
(0.0999996 -5.13257e-11 0)
(0.0999996 -4.04761e-11 0)
(0.0999996 1.78738e-11 0)
(0.0999996 6.40494e-11 0)
(0.0999996 1.15611e-10 0)
(0.0999996 1.63471e-10 0)
(0.0999996 1.81942e-10 0)
(0.0999996 1.54047e-10 0)
(0.0999996 9.20786e-11 0)
(0.0999996 1.9423e-11 0)
(0.0999996 -2.91608e-11 0)
(0.0999996 -2.26463e-11 0)
(0.0999996 8.0185e-12 0)
(0.0999996 2.38602e-11 0)
(0.0999996 4.18874e-11 0)
(0.0999996 5.72673e-11 0)
(0.0999996 6.11964e-11 0)
(0.0999996 5.1455e-11 0)
(0.0999996 2.92615e-11 0)
(0.0999996 6.54145e-12 0)
(0.0999996 -8.44307e-12 0)
(0.0999996 -7.20329e-12 0)
)
;

boundaryField
{
    back
    {
        type            empty;
    }
    down
    {
        type            calculated;
        value           nonuniform List<vector> 5((0.0999996 -2.88225e-11 0) (0.0999996 1.00976e-11 0) (0.0999996 2.26946e-11 0) (0.0999996 1.78738e-11 0) (0.0999996 8.0185e-12 0));
    }
    up
    {
        type            calculated;
        value           nonuniform List<vector> 5((0.0999996 -4.36531e-11 0) (0.0999996 -5.23328e-11 0) (0.0999996 -4.04761e-11 0) (0.0999996 -2.26463e-11 0) (0.0999996 -7.20329e-12 0));
    }
    front
    {
        type            empty;
    }
    right
    {
        type            calculated;
        value           nonuniform List<vector> 10((0.0999996 8.0185e-12 0) (0.0999996 2.38602e-11 0) (0.0999996 4.18874e-11 0) (0.0999996 5.72673e-11 0) (0.0999996 6.11964e-11 0) (0.0999996 5.1455e-11 0) (0.0999996 2.92615e-11 0) (0.0999996 6.54145e-12 0) (0.0999996 -8.44307e-12 0) (0.0999996 -7.20329e-12 0));
    }
    rightDielectric_to_leftGas
    {
        type            calculated;
        value           nonuniform List<vector> 10((0.0999996 -2.88225e-11 0) (0.0999996 -3.43747e-11 0) (0.0999996 1.11161e-11 0) (0.0999996 1.0451e-10 0) (0.0999996 2.07555e-10 0) (0.0999996 2.42493e-10 0) (0.0999996 2.07435e-10 0) (0.0999996 9.95724e-11 0) (0.0999996 -2.87356e-11 0) (0.0999996 -4.36531e-11 0));
    }
}


// ************************************************************************* //
