/*--------------------------------*- C++ -*----------------------------------*\
| =========                 |                                                 |
| \\      /  F ield         | OpenFOAM: The Open Source CFD Toolbox           |
|  \\    /   O peration     | Version:  2412                                  |
|   \\  /    A nd           | Website:  www.openfoam.com                      |
|    \\/     M anipulation  |                                                 |
\*---------------------------------------------------------------------------*/
FoamFile
{
    version     2.0;
    format      ascii;
    arch        "LSB;label=32;scalar=64";
    class       volVectorField;
    location    "5/leftGas";
    object      E;
}
// * * * * * * * * * * * * * * * * * * * * * * * * * * * * * * * * * * * * * //

dimensions      [1 1 -3 0 0 -1 0];

internalField   nonuniform List<vector> 
50
(
(0.833334 -4.77458e-10 0)
(0.833334 -1.1742e-09 0)
(0.833334 -1.49938e-09 0)
(0.833334 -1.42635e-09 0)
(0.833334 -1.04374e-09 0)
(0.833334 -5.65808e-10 0)
(0.833334 5.20852e-11 0)
(0.833334 4.98324e-10 0)
(0.833334 5.23986e-10 0)
(0.833334 2.23529e-10 0)
(0.833334 -1.03007e-09 0)
(0.833334 -2.64298e-09 0)
(0.833334 -3.35498e-09 0)
(0.833334 -3.14869e-09 0)
(0.833334 -2.30503e-09 0)
(0.833334 -1.13361e-09 0)
(0.833334 1.40623e-10 0)
(0.833334 1.06041e-09 0)
(0.833334 1.13394e-09 0)
(0.833334 4.49364e-10 0)
(0.833334 -1.17186e-09 0)
(0.833334 -2.96326e-09 0)
(0.833334 -3.72042e-09 0)
(0.833334 -3.44204e-09 0)
(0.833334 -2.50319e-09 0)
(0.833334 -1.20185e-09 0)
(0.833334 2.24332e-10 0)
(0.833334 1.17642e-09 0)
(0.833334 1.17053e-09 0)
(0.833334 4.30124e-10 0)
(0.833334 -8.45017e-10 0)
(0.833334 -2.25918e-09 0)
(0.833334 -2.81479e-09 0)
(0.833334 -2.57862e-09 0)
(0.833334 -1.86578e-09 0)
(0.833334 -8.38407e-10 0)
(0.833334 2.05951e-10 0)
(0.833334 8.72145e-10 0)
(0.833334 7.98712e-10 0)
(0.833334 2.83138e-10 0)
(0.833332 -4.2702e-10 0)
(0.833332 -1.07368e-09 0)
(0.833332 -1.30973e-09 0)
(0.833332 -1.18844e-09 0)
(0.833332 -8.15102e-10 0)
(0.833332 -3.31135e-10 0)
(0.833332 1.47636e-10 0)
(0.833332 3.97811e-10 0)
(0.833332 3.2497e-10 0)
(0.833332 1.16199e-10 0)
)
;

boundaryField
{
    back
    {
        type            empty;
    }
    down
    {
        type            calculated;
        value           nonuniform List<vector> 5((0.833334 -4.77458e-10 0) (0.833334 -1.03007e-09 0) (0.833334 -1.17186e-09 0) (0.833334 -8.45017e-10 0) (0.833332 -4.2702e-10 0));
    }
    up
    {
        type            calculated;
        value           nonuniform List<vector> 5((0.833334 2.23529e-10 0) (0.833334 4.49364e-10 0) (0.833334 4.30124e-10 0) (0.833334 2.83138e-10 0) (0.833332 1.16199e-10 0));
    }
    left
    {
        type            calculated;
        value           nonuniform List<vector> 10((0.833334 -4.77458e-10 0) (0.833334 -1.1742e-09 0) (0.833334 -1.49938e-09 0) (0.833334 -1.42635e-09 0) (0.833334 -1.04374e-09 0) (0.833334 -5.65808e-10 0) (0.833334 5.20852e-11 0) (0.833334 4.98324e-10 0) (0.833334 5.23986e-10 0) (0.833334 2.23529e-10 0));
    }
    front
    {
        type            empty;
    }
    leftGas_to_rightDielectric
    {
        type            calculated;
        value           nonuniform List<vector> 10((0.833332 -4.2702e-10 0) (0.833332 -1.07368e-09 0) (0.833332 -1.30973e-09 0) (0.833332 -1.18844e-09 0) (0.833332 -8.15102e-10 0) (0.833332 -3.31135e-10 0) (0.833332 1.47636e-10 0) (0.833332 3.97811e-10 0) (0.833332 3.2497e-10 0) (0.833332 1.16199e-10 0));
    }
}


// ************************************************************************* //
