/*--------------------------------*- C++ -*----------------------------------*\
| =========                 |                                                 |
| \\      /  F ield         | OpenFOAM: The Open Source CFD Toolbox           |
|  \\    /   O peration     | Version:  2412                                  |
|   \\  /    A nd           | Website:  www.openfoam.com                      |
|    \\/     M anipulation  |                                                 |
\*---------------------------------------------------------------------------*/
FoamFile
{
    version     2.0;
    format      ascii;
    arch        "LSB;label=32;scalar=64";
    class       volVectorField;
    location    "4/leftGas";
    object      E;
}
// * * * * * * * * * * * * * * * * * * * * * * * * * * * * * * * * * * * * * //

dimensions      [1 1 -3 0 0 -1 0];

internalField   nonuniform List<vector> 
50
(
(0.666668 -4.54688e-10 0)
(0.666668 -1.11528e-09 0)
(0.666668 -1.42288e-09 0)
(0.666668 -1.35366e-09 0)
(0.666668 -9.92032e-10 0)
(0.666668 -5.40575e-10 0)
(0.666668 5.41902e-11 0)
(0.666668 4.89445e-10 0)
(0.666668 5.16592e-10 0)
(0.666668 2.21259e-10 0)
(0.666668 -9.72794e-10 0)
(0.666668 -2.49382e-09 0)
(0.666668 -3.16164e-09 0)
(0.666668 -2.9641e-09 0)
(0.666668 -2.16874e-09 0)
(0.666668 -1.06094e-09 0)
(0.666668 1.57765e-10 0)
(0.666668 1.04978e-09 0)
(0.666668 1.12188e-09 0)
(0.666668 4.45549e-10 0)
(0.666668 -1.0925e-09 0)
(0.666668 -2.75328e-09 0)
(0.666668 -3.44533e-09 0)
(0.666668 -3.17422e-09 0)
(0.666668 -2.29612e-09 0)
(0.666668 -1.08011e-09 0)
(0.666668 2.6867e-10 0)
(0.666668 1.17706e-09 0)
(0.666668 1.16188e-09 0)
(0.666668 4.27148e-10 0)
(0.666668 -7.48649e-10 0)
(0.666668 -1.99922e-09 0)
(0.666668 -2.46895e-09 0)
(0.666668 -2.23274e-09 0)
(0.666668 -1.58568e-09 0)
(0.666668 -6.61094e-10 0)
(0.666668 2.84633e-10 0)
(0.666668 8.86727e-10 0)
(0.666668 7.91434e-10 0)
(0.666668 2.7912e-10 0)
(0.666666 -3.00944e-10 0)
(0.666666 -7.36424e-10 0)
(0.666666 -8.57877e-10 0)
(0.666666 -7.28849e-10 0)
(0.666666 -4.36903e-10 0)
(0.666666 -8.67121e-11 0)
(0.666666 2.52554e-10 0)
(0.666666 4.04822e-10 0)
(0.666666 2.97902e-10 0)
(0.666666 1.01895e-10 0)
)
;

boundaryField
{
    back
    {
        type            empty;
    }
    down
    {
        type            calculated;
        value           nonuniform List<vector> 5((0.666668 -4.54688e-10 0) (0.666668 -9.72794e-10 0) (0.666668 -1.0925e-09 0) (0.666668 -7.48649e-10 0) (0.666666 -3.00944e-10 0));
    }
    up
    {
        type            calculated;
        value           nonuniform List<vector> 5((0.666668 2.21259e-10 0) (0.666668 4.45549e-10 0) (0.666668 4.27148e-10 0) (0.666668 2.7912e-10 0) (0.666666 1.01895e-10 0));
    }
    left
    {
        type            calculated;
        value           nonuniform List<vector> 10((0.666668 -4.54688e-10 0) (0.666668 -1.11528e-09 0) (0.666668 -1.42288e-09 0) (0.666668 -1.35366e-09 0) (0.666668 -9.92032e-10 0) (0.666668 -5.40575e-10 0) (0.666668 5.41902e-11 0) (0.666668 4.89445e-10 0) (0.666668 5.16592e-10 0) (0.666668 2.21259e-10 0));
    }
    front
    {
        type            empty;
    }
    leftGas_to_rightDielectric
    {
        type            calculated;
        value           nonuniform List<vector> 10((0.666666 -3.00944e-10 0) (0.666666 -7.36424e-10 0) (0.666666 -8.57877e-10 0) (0.666666 -7.28849e-10 0) (0.666666 -4.36903e-10 0) (0.666666 -8.67121e-11 0) (0.666666 2.52554e-10 0) (0.666666 4.04822e-10 0) (0.666666 2.97902e-10 0) (0.666666 1.01895e-10 0));
    }
}


// ************************************************************************* //
