/*--------------------------------*- C++ -*----------------------------------*\
| =========                 |                                                 |
| \\      /  F ield         | OpenFOAM: The Open Source CFD Toolbox           |
|  \\    /   O peration     | Version:  2412                                  |
|   \\  /    A nd           | Website:  www.openfoam.com                      |
|    \\/     M anipulation  |                                                 |
\*---------------------------------------------------------------------------*/
FoamFile
{
    version     2.0;
    format      ascii;
    arch        "LSB;label=32;scalar=64";
    class       volScalarField;
    location    "4/leftGas";
    object      ePotential;
}
// * * * * * * * * * * * * * * * * * * * * * * * * * * * * * * * * * * * * * //

dimensions      [1 2 -3 0 0 -1 0];

internalField   nonuniform List<scalar> 
50
(
0.366667
0.366667
0.366667
0.366667
0.366667
0.366667
0.366667
0.366667
0.366667
0.366667
0.3
0.3
0.3
0.3
0.3
0.3
0.3
0.3
0.3
0.3
0.233333
0.233333
0.233333
0.233333
0.233333
0.233333
0.233333
0.233333
0.233333
0.233333
0.166666
0.166666
0.166666
0.166666
0.166666
0.166666
0.166666
0.166666
0.166666
0.166666
0.0999995
0.0999995
0.0999995
0.0999995
0.0999995
0.0999995
0.0999995
0.0999995
0.0999995
0.0999995
)
;

boundaryField
{
    back
    {
        type            empty;
    }
    down
    {
        type            zeroGradient;
    }
    up
    {
        type            zeroGradient;
    }
    left
    {
        type            uniformFixedValue;
        uniformValue    table;
        uniformValueCoeffs
        {
            values          
2
(
(0 0)
(10 1)
)
;
        }
        value           uniform 0.4;
    }
    front
    {
        type            empty;
    }
    leftGas_to_rightDielectric
    {
        type            coupledElectricPotential;
        refValue        nonuniform List<scalar> 10(0.0599997 0.0599997 0.0599997 0.0599997 0.0599997 0.0599997 0.0599997 0.0599997 0.0599997 0.0599997);
        refGradient     uniform -0;
        valueFraction   nonuniform List<scalar> 10(0.833333 0.833333 0.833333 0.833333 0.833333 0.833333 0.833333 0.833333 0.833333 0.833333);
        source          uniform 0;
        value           nonuniform List<scalar> 10(0.0666663 0.0666663 0.0666663 0.0666663 0.0666663 0.0666663 0.0666663 0.0666663 0.0666663 0.0666663);
        surfCharge      surfCharge;
        logInterval     -1;
        writePrecision  6;
        updateHeader    1;
        writeToFile     0;
        useUserTime     1;
    }
}


// ************************************************************************* //
