/*--------------------------------*- C++ -*----------------------------------*\
| =========                 |                                                 |
| \\      /  F ield         | OpenFOAM: The Open Source CFD Toolbox           |
|  \\    /   O peration     | Version:  2412                                  |
|   \\  /    A nd           | Website:  www.openfoam.com                      |
|    \\/     M anipulation  |                                                 |
\*---------------------------------------------------------------------------*/
FoamFile
{
    version     2.0;
    format      ascii;
    arch        "LSB;label=32;scalar=64";
    class       volVectorField;
    location    "2/leftGas";
    object      E;
}
// * * * * * * * * * * * * * * * * * * * * * * * * * * * * * * * * * * * * * //

dimensions      [1 1 -3 0 0 -1 0];

internalField   nonuniform List<vector> 
50
(
(2.77556e-16 -1.38778e-16 0)
(9.62965e-33 -1.38778e-16 0)
(1.38778e-16 2.77556e-16 0)
(8.32667e-16 2.77556e-16 0)
(9.71445e-16 1.02716e-31 0)
(9.71445e-16 1.60494e-33 0)
(8.32667e-16 -4.16334e-16 0)
(1.38778e-16 -4.16334e-16 0)
(-7.70372e-32 1.38778e-16 0)
(2.77556e-16 1.38778e-16 0)
(1.38778e-16 -1.38778e-16 0)
(4.16334e-16 7.70372e-32 0)
(5.55112e-16 5.55112e-16 0)
(5.55112e-16 5.55112e-16 0)
(6.93889e-16 1.38778e-16 0)
(6.93889e-16 -1.38778e-16 0)
(6.93889e-16 -4.16334e-16 0)
(8.32667e-16 -4.16334e-16 0)
(8.32667e-16 -2.11852e-31 0)
(5.55112e-16 1.38778e-16 0)
(4.16334e-16 1.38778e-16 0)
(6.93889e-16 2.77556e-16 0)
(6.93889e-16 4.16334e-16 0)
(4.16334e-16 4.16334e-16 0)
(2.77556e-16 1.38778e-16 0)
(2.77556e-16 0 0)
(4.16334e-16 -2.77556e-16 0)
(6.93889e-16 -2.77556e-16 0)
(8.32667e-16 -1.38778e-16 0)
(6.93889e-16 -1.38778e-16 0)
(4.16334e-16 1.38778e-16 0)
(2.77556e-16 2.77556e-16 0)
(2.77556e-16 2.77556e-16 0)
(2.77556e-16 1.38778e-16 0)
(2.77556e-16 -7.70372e-32 0)
(2.77556e-16 1.36846e-46 0)
(2.77556e-16 1.92593e-32 0)
(4.16334e-16 -1.92593e-32 0)
(4.16334e-16 1.92593e-32 0)
(5.55112e-16 1.34815e-31 0)
(1.38778e-16 0 0)
(2.88889e-32 1.38778e-16 0)
(1.52148e-31 4.16334e-16 0)
(1.38778e-16 4.16334e-16 0)
(2.77556e-16 1.38778e-16 0)
(2.77556e-16 -5.13581e-32 0)
(2.77556e-16 -1.38778e-16 0)
(1.38778e-16 -1.38778e-16 0)
(1.38778e-16 -3.84878e-47 0)
(1.38778e-16 -2.56791e-32 0)
)
;

boundaryField
{
    back
    {
        type            empty;
    }
    down
    {
        type            calculated;
        value           nonuniform List<vector> 5((2.77556e-16 -1.38778e-16 0) (1.38778e-16 -1.38778e-16 0) (4.16334e-16 1.38778e-16 0) (4.16334e-16 1.38778e-16 0) (1.38778e-16 0 0));
    }
    up
    {
        type            calculated;
        value           nonuniform List<vector> 5((2.77556e-16 1.38778e-16 0) (5.55112e-16 1.38778e-16 0) (6.93889e-16 -1.38778e-16 0) (5.55112e-16 1.34815e-31 0) (1.38778e-16 -2.56791e-32 0));
    }
    left
    {
        type            calculated;
        value           nonuniform List<vector> 10((2.77556e-16 -1.38778e-16 0) (9.62965e-33 -1.38778e-16 0) (1.38778e-16 2.77556e-16 0) (8.32667e-16 2.77556e-16 0) (9.71445e-16 1.02716e-31 0) (9.71445e-16 1.60494e-33 0) (8.32667e-16 -4.16334e-16 0) (1.38778e-16 -4.16334e-16 0) (-7.70372e-32 1.38778e-16 0) (2.77556e-16 1.38778e-16 0));
    }
    front
    {
        type            empty;
    }
    leftGas_to_rightDielectric
    {
        type            calculated;
        value           nonuniform List<vector> 10((1.38778e-16 0 0) (2.88889e-32 1.38778e-16 0) (1.52148e-31 4.16334e-16 0) (1.38778e-16 4.16334e-16 0) (2.77556e-16 1.38778e-16 0) (2.77556e-16 -5.13581e-32 0) (2.77556e-16 -1.38778e-16 0) (1.38778e-16 -1.38778e-16 0) (1.38778e-16 -3.84878e-47 0) (1.38778e-16 -2.56791e-32 0));
    }
}


// ************************************************************************* //
