/*--------------------------------*- C++ -*----------------------------------*\
| =========                 |                                                 |
| \\      /  F ield         | OpenFOAM: The Open Source CFD Toolbox           |
|  \\    /   O peration     | Version:  2412                                  |
|   \\  /    A nd           | Website:  www.openfoam.com                      |
|    \\/     M anipulation  |                                                 |
\*---------------------------------------------------------------------------*/
FoamFile
{
    version     2.0;
    format      ascii;
    arch        "LSB;label=32;scalar=64";
    class       volScalarField;
    location    "2/leftGas";
    object      reducedE;
}
// * * * * * * * * * * * * * * * * * * * * * * * * * * * * * * * * * * * * * //

dimensions      [1 4 -3 0 0 -1 0];

internalField   nonuniform List<scalar> 
50
(
1.24127e-41
5.55112e-42
1.24127e-41
3.51083e-41
3.88578e-41
3.88578e-41
3.7238e-41
1.75542e-41
5.55112e-42
1.24127e-41
7.85046e-42
1.66533e-41
3.14018e-41
3.14018e-41
2.83052e-41
2.83052e-41
3.23683e-41
3.7238e-41
3.33067e-41
2.28878e-41
1.75542e-41
2.98937e-41
3.23683e-41
2.35514e-41
1.24127e-41
1.11022e-41
2.00148e-41
2.98937e-41
3.37661e-41
2.83052e-41
1.75542e-41
1.57009e-41
1.57009e-41
1.24127e-41
1.11022e-41
1.11022e-41
1.11022e-41
1.66533e-41
1.66533e-41
2.22045e-41
5.55112e-42
5.55112e-42
1.66533e-41
1.75542e-41
1.24127e-41
1.11022e-41
1.24127e-41
7.85046e-42
5.55112e-42
5.55112e-42
)
;

boundaryField
{
    back
    {
        type            empty;
    }
    down
    {
        type            calculated;
        value           nonuniform List<scalar> 5(1.24127e-41 7.85046e-42 1.75542e-41 1.75542e-41 5.55112e-42);
    }
    up
    {
        type            calculated;
        value           nonuniform List<scalar> 5(1.24127e-41 2.28878e-41 2.83052e-41 2.22045e-41 5.55112e-42);
    }
    left
    {
        type            calculated;
        value           nonuniform List<scalar> 10(1.24127e-41 5.55112e-42 1.24127e-41 3.51083e-41 3.88578e-41 3.88578e-41 3.7238e-41 1.75542e-41 5.55112e-42 1.24127e-41);
    }
    front
    {
        type            empty;
    }
    leftGas_to_rightDielectric
    {
        type            calculated;
        value           nonuniform List<scalar> 10(5.55112e-42 5.55112e-42 1.66533e-41 1.75542e-41 1.24127e-41 1.11022e-41 1.24127e-41 7.85046e-42 5.55112e-42 5.55112e-42);
    }
}


// ************************************************************************* //
