/*--------------------------------*- C++ -*----------------------------------*\
| =========                 |                                                 |
| \\      /  F ield         | OpenFOAM: The Open Source CFD Toolbox           |
|  \\    /   O peration     | Version:  2412                                  |
|   \\  /    A nd           | Website:  www.openfoam.com                      |
|    \\/     M anipulation  |                                                 |
\*---------------------------------------------------------------------------*/
FoamFile
{
    version     2.0;
    format      ascii;
    arch        "LSB;label=32;scalar=64";
    class       volVectorField;
    location    "3/leftGas";
    object      E;
}
// * * * * * * * * * * * * * * * * * * * * * * * * * * * * * * * * * * * * * //

dimensions      [1 1 -3 0 0 -1 0];

internalField   nonuniform List<vector> 
50
(
(0 -2.77556e-16 0)
(-2.77556e-16 0 0)
(3.85186e-32 2.77556e-16 0)
(2.77556e-16 -2.77556e-16 0)
(-1.54074e-31 5.00742e-31 0)
(0 2.77556e-16 0)
(-2.77556e-16 -2.77556e-16 0)
(-8.32667e-16 -2.77556e-16 0)
(-8.32667e-16 -6.41977e-32 0)
(-8.32667e-16 0 0)
(5.55112e-16 -9.62965e-32 0)
(8.32667e-16 -9.62965e-32 0)
(2.77556e-16 2.77556e-16 0)
(5.55112e-16 2.77556e-16 0)
(8.32667e-16 -2.77556e-16 0)
(7.70372e-31 -5.55112e-16 0)
(-2.77556e-16 -5.55112e-16 0)
(-2.77556e-16 -2.77556e-16 0)
(-1.15556e-31 1.92593e-32 0)
(-2.77556e-16 3.85186e-32 0)
(1.38778e-15 0 0)
(1.11022e-15 -2.77556e-16 0)
(8.32667e-16 -7.70372e-32 0)
(2.77556e-16 2.77556e-16 0)
(2.77556e-16 -5.55112e-16 0)
(2.77556e-16 -8.32667e-16 0)
(-3.85186e-31 -5.55112e-16 0)
(4.62223e-31 5.00742e-31 0)
(5.55112e-16 -5.3926e-31 0)
(2.77556e-16 -2.77556e-16 0)
(1.11022e-15 -2.77556e-16 0)
(5.55112e-16 -5.55112e-16 0)
(8.32667e-16 -5.55112e-16 0)
(2.77556e-16 -2.77556e-16 0)
(1.02634e-46 -2.77556e-16 0)
(2.77556e-16 -8.32667e-16 0)
(2.73691e-46 -8.32667e-16 0)
(2.77556e-16 2.77556e-16 0)
(2.77556e-16 2.77556e-16 0)
(2.77556e-16 -2.77556e-16 0)
(2.77556e-16 -5.55112e-16 0)
(-7.70372e-32 -5.55112e-16 0)
(2.77556e-16 -2.77556e-16 0)
(2.77556e-16 -5.55112e-16 0)
(1.15556e-31 -5.55112e-16 0)
(4.62223e-31 -8.32667e-16 0)
(3.85186e-31 -5.55112e-16 0)
(2.77556e-16 2.77556e-16 0)
(-1.46371e-31 -5.77779e-31 0)
(-1.02716e-31 -2.77556e-16 0)
)
;

boundaryField
{
    back
    {
        type            empty;
    }
    down
    {
        type            calculated;
        value           nonuniform List<vector> 5((0 -2.77556e-16 0) (5.55112e-16 -9.62965e-32 0) (1.38778e-15 0 0) (1.11022e-15 -2.77556e-16 0) (2.77556e-16 -5.55112e-16 0));
    }
    up
    {
        type            calculated;
        value           nonuniform List<vector> 5((-8.32667e-16 0 0) (-2.77556e-16 3.85186e-32 0) (2.77556e-16 -2.77556e-16 0) (2.77556e-16 -2.77556e-16 0) (-1.02716e-31 -2.77556e-16 0));
    }
    left
    {
        type            calculated;
        value           nonuniform List<vector> 10((0 -2.77556e-16 0) (-2.77556e-16 0 0) (3.85186e-32 2.77556e-16 0) (2.77556e-16 -2.77556e-16 0) (-1.54074e-31 5.00742e-31 0) (0 2.77556e-16 0) (-2.77556e-16 -2.77556e-16 0) (-8.32667e-16 -2.77556e-16 0) (-8.32667e-16 -6.41977e-32 0) (-8.32667e-16 0 0));
    }
    front
    {
        type            empty;
    }
    leftGas_to_rightDielectric
    {
        type            calculated;
        value           nonuniform List<vector> 10((2.77556e-16 -5.55112e-16 0) (-7.70372e-32 -5.55112e-16 0) (2.77556e-16 -2.77556e-16 0) (2.77556e-16 -5.55112e-16 0) (1.15556e-31 -5.55112e-16 0) (4.62223e-31 -8.32667e-16 0) (3.85186e-31 -5.55112e-16 0) (2.77556e-16 2.77556e-16 0) (-1.46371e-31 -5.77779e-31 0) (-1.02716e-31 -2.77556e-16 0));
    }
}


// ************************************************************************* //
