/*--------------------------------*- C++ -*----------------------------------*\
| =========                 |                                                 |
| \\      /  F ield         | OpenFOAM: The Open Source CFD Toolbox           |
|  \\    /   O peration     | Version:  2412                                  |
|   \\  /    A nd           | Website:  www.openfoam.com                      |
|    \\/     M anipulation  |                                                 |
\*---------------------------------------------------------------------------*/
FoamFile
{
    version     2.0;
    format      ascii;
    arch        "LSB;label=32;scalar=64";
    class       volScalarField;
    location    "3/leftGas";
    object      reducedE;
}
// * * * * * * * * * * * * * * * * * * * * * * * * * * * * * * * * * * * * * //

dimensions      [1 4 -3 0 0 -1 0];

internalField   nonuniform List<scalar> 
50
(
1.11022e-41
1.11022e-41
1.11022e-41
1.57009e-41
2.09564e-56
1.11022e-41
1.57009e-41
3.51083e-41
3.33067e-41
3.33067e-41
2.22045e-41
3.33067e-41
1.57009e-41
2.48253e-41
3.51083e-41
2.22045e-41
2.48253e-41
1.57009e-41
4.68599e-57
1.11022e-41
5.55112e-41
4.57757e-41
3.33067e-41
1.57009e-41
2.48253e-41
3.51083e-41
2.22045e-41
2.72585e-56
2.22045e-41
1.57009e-41
4.57757e-41
3.14018e-41
4.00297e-41
1.57009e-41
1.11022e-41
3.51083e-41
3.33067e-41
1.57009e-41
1.57009e-41
1.57009e-41
2.48253e-41
2.22045e-41
1.57009e-41
2.48253e-41
2.22045e-41
3.33067e-41
2.22045e-41
1.57009e-41
2.38412e-56
1.11022e-41
)
;

boundaryField
{
    back
    {
        type            empty;
    }
    down
    {
        type            calculated;
        value           nonuniform List<scalar> 5(1.11022e-41 2.22045e-41 5.55112e-41 4.57757e-41 2.48253e-41);
    }
    up
    {
        type            calculated;
        value           nonuniform List<scalar> 5(3.33067e-41 1.11022e-41 1.57009e-41 1.57009e-41 1.11022e-41);
    }
    left
    {
        type            calculated;
        value           nonuniform List<scalar> 10(1.11022e-41 1.11022e-41 1.11022e-41 1.57009e-41 2.09564e-56 1.11022e-41 1.57009e-41 3.51083e-41 3.33067e-41 3.33067e-41);
    }
    front
    {
        type            empty;
    }
    leftGas_to_rightDielectric
    {
        type            calculated;
        value           nonuniform List<scalar> 10(2.48253e-41 2.22045e-41 1.57009e-41 2.48253e-41 2.22045e-41 3.33067e-41 2.22045e-41 1.57009e-41 2.38412e-56 1.11022e-41);
    }
}


// ************************************************************************* //
