/*--------------------------------*- C++ -*----------------------------------*\
| =========                 |                                                 |
| \\      /  F ield         | OpenFOAM: The Open Source CFD Toolbox           |
|  \\    /   O peration     | Version:  2412                                  |
|   \\  /    A nd           | Website:  www.openfoam.com                      |
|    \\/     M anipulation  |                                                 |
\*---------------------------------------------------------------------------*/
FoamFile
{
    version     2.0;
    format      ascii;
    arch        "LSB;label=32;scalar=64";
    class       volVectorField;
    location    "2/leftGas";
    object      E;
}
// * * * * * * * * * * * * * * * * * * * * * * * * * * * * * * * * * * * * * //

dimensions      [1 1 -3 0 0 -1 0];

internalField   nonuniform List<vector> 
50
(
(0.333334 -2.40716e-10 0)
(0.333334 -5.90442e-10 0)
(0.333334 -7.53285e-10 0)
(0.333334 -7.16641e-10 0)
(0.333334 -5.25191e-10 0)
(0.333334 -2.86185e-10 0)
(0.333334 2.86888e-11 0)
(0.333334 2.59117e-10 0)
(0.333334 2.73488e-10 0)
(0.333334 1.17136e-10 0)
(0.333334 -5.15006e-10 0)
(0.333334 -1.32025e-09 0)
(0.333334 -1.6738e-09 0)
(0.333334 -1.56922e-09 0)
(0.333334 -1.14815e-09 0)
(0.333334 -5.6167e-10 0)
(0.333334 8.35219e-11 0)
(0.333334 5.55763e-10 0)
(0.333334 5.93932e-10 0)
(0.333334 2.35878e-10 0)
(0.333334 -5.78377e-10 0)
(0.333334 -1.45761e-09 0)
(0.333334 -1.82399e-09 0)
(0.333334 -1.68046e-09 0)
(0.333334 -1.21559e-09 0)
(0.333334 -5.71822e-10 0)
(0.333334 1.42236e-10 0)
(0.333334 6.23148e-10 0)
(0.333334 6.15109e-10 0)
(0.333334 2.26136e-10 0)
(0.333334 -3.96342e-10 0)
(0.333334 -1.05841e-09 0)
(0.333334 -1.30708e-09 0)
(0.333334 -1.18203e-09 0)
(0.333334 -8.39473e-10 0)
(0.333334 -3.49989e-10 0)
(0.333334 1.50687e-10 0)
(0.333334 4.69441e-10 0)
(0.333334 4.18993e-10 0)
(0.333334 1.47769e-10 0)
(0.333333 -1.59323e-10 0)
(0.333333 -3.8987e-10 0)
(0.333333 -4.54168e-10 0)
(0.333333 -3.85859e-10 0)
(0.333333 -2.313e-10 0)
(0.333333 -4.59063e-11 0)
(0.333333 1.33704e-10 0)
(0.333333 2.14317e-10 0)
(0.333333 1.57712e-10 0)
(0.333333 5.39445e-11 0)
)
;

boundaryField
{
    back
    {
        type            empty;
    }
    down
    {
        type            calculated;
        value           nonuniform List<vector> 5((0.333334 -2.40716e-10 0) (0.333334 -5.15006e-10 0) (0.333334 -5.78377e-10 0) (0.333334 -3.96342e-10 0) (0.333333 -1.59323e-10 0));
    }
    up
    {
        type            calculated;
        value           nonuniform List<vector> 5((0.333334 1.17136e-10 0) (0.333334 2.35878e-10 0) (0.333334 2.26136e-10 0) (0.333334 1.47769e-10 0) (0.333333 5.39445e-11 0));
    }
    left
    {
        type            calculated;
        value           nonuniform List<vector> 10((0.333334 -2.40716e-10 0) (0.333334 -5.90442e-10 0) (0.333334 -7.53285e-10 0) (0.333334 -7.16641e-10 0) (0.333334 -5.25191e-10 0) (0.333334 -2.86185e-10 0) (0.333334 2.86888e-11 0) (0.333334 2.59117e-10 0) (0.333334 2.73488e-10 0) (0.333334 1.17136e-10 0));
    }
    front
    {
        type            empty;
    }
    leftGas_to_rightDielectric
    {
        type            calculated;
        value           nonuniform List<vector> 10((0.333333 -1.59323e-10 0) (0.333333 -3.8987e-10 0) (0.333333 -4.54168e-10 0) (0.333333 -3.85859e-10 0) (0.333333 -2.313e-10 0) (0.333333 -4.59063e-11 0) (0.333333 1.33704e-10 0) (0.333333 2.14317e-10 0) (0.333333 1.57712e-10 0) (0.333333 5.39445e-11 0));
    }
}


// ************************************************************************* //
